ITEM: TIMESTEP
100000
ITEM: NUMBER OF ATOMS
18000
ITEM: BOX BOUNDS xy xz yz pp pp pp
-1.9337213975935047e-01 2.8087372139758582e+01 0.0000000000000000e+00
-2.1689694014488574e+00 3.3689696940144307e+02 0.0000000000000000e+00
-1.9336848455324390e-01 2.8087368484553352e+01 0.0000000000000000e+00
ITEM: ATOMS id type x y z
1 1 1.29104 -0.875427 1.15163
2 1 3.90651 -0.828796 1.09133
3 1 3.95762 -0.835758 4.08611
4 1 1.15411 -0.91448 4.14955
5 1 1.03198 2.09111 1.2994
6 1 3.75139 2.07867 1.09087
7 1 3.64897 2.0025 4.24788
8 1 1.08416 1.96736 4.09571
9 1 6.70759 -0.800705 1.10161
10 1 9.28741 -1.12148 1.18279
11 1 9.40137 -0.795289 4.27831
12 1 6.60299 -0.759512 3.9262
13 1 6.64305 2.0746 1.07587
14 1 9.34243 1.9155 1.2086
15 1 9.28217 2.11244 4.06579
16 1 6.71979 1.91717 3.76911
17 1 12.1467 -0.786552 1.14797
18 1 12.2299 -1.04498 3.98278
19 1 12.5499 2.05698 1.21838
20 1 12.0992 1.78345 4.0574
21 1 0.799063 4.77528 1.27509
22 1 3.92262 4.65942 1.13273
23 1 4.0694 4.98204 4.19053
24 1 0.849388 4.85229 4.01127
25 1 1.1846 7.54287 1.05546
26 1 4.04584 7.578 1.07213
27 1 3.97554 7.72179 3.86296
28 1 1.32389 7.58356 4.05505
29 1 6.7662 4.9073 0.982732
30 1 9.81616 4.74843 0.813112
31 1 9.46829 4.99733 3.71538
32 1 6.79698 4.74067 3.84998
33 1 6.81695 7.78316 1.17246
34 1 9.47899 7.8271 1.00198
35 1 9.64765 7.59049 3.75111
36 1 6.75644 7.52506 3.97574
37 1 12.5436 4.79632 1.25543
38 1 12.2229 4.68168 4.07346
15061 2 13.6201 6.08671 5.56149
40 1 12.1641 7.7614 1.06486
41 1 1.26983 10.7096 1.09993
42 1 3.9632 10.4598 1.27394
43 1 4.05682 10.3367 3.86307
44 1 0.979465 10.4163 3.94893
45 1 0.983037 13.2097 1.22944
46 1 3.76277 13.537 0.902916
47 1 3.81704 13.2491 3.95397
48 1 1.12335 13.1381 3.8141
49 1 6.56188 10.6466 1.2303
50 1 9.52896 10.6804 0.997358
51 1 9.59387 10.4858 4.08365
52 1 6.83602 10.3227 3.88125
53 1 6.51712 13.2949 1.31401
54 1 9.36149 13.4544 1.15667
55 1 9.61173 13.5701 3.91844
56 1 6.62161 13.3268 3.99443
57 1 12.2357 10.5841 1.04686
58 1 12.3575 10.3531 3.7448
59 1 12.3576 13.3017 1.20198
60 1 12.3028 13.308 3.94621
61 1 1.07076 16.1363 1.16981
62 1 4.00377 16.276 1.09851
63 1 3.8711 16.0964 3.80334
64 1 1.05958 16.2811 4.061
65 1 1.09212 18.8652 1.3782
66 1 3.95993 19.0058 0.985013
67 1 3.88567 18.8487 3.86779
68 1 1.36975 18.976 3.99775
69 1 6.73707 16.1695 1.08846
70 1 9.4446 16.3164 1.3014
71 1 9.57003 16.2101 4.12644
72 1 6.71328 16.0507 4.09332
73 1 6.75305 18.7507 1.04952
74 1 9.61739 19.0376 1.32616
75 1 9.62958 19.1952 3.89803
76 1 6.90412 18.5739 3.78054
77 1 12.3393 16.0512 1.42767
78 1 12.2853 16.1326 4.04118
79 1 12.235 21.5437 1.20353
80 1 12.5489 18.8038 3.96463
81 1 0.829464 21.9818 1.10207
82 1 3.83848 21.7362 1.01192
83 1 4.08737 21.7246 3.91638
84 1 1.28798 21.6615 3.79501
85 1 6.76561 21.6735 1.16796
86 1 9.58255 21.7269 1.29494
87 1 9.90942 21.8568 4.01636
88 1 6.85186 21.7829 3.91888
6178 1 1.0849 21.6883 6.73472
90 1 12.4067 21.9069 3.86628
91 1 0.944639 -0.766345 7.00451
92 1 3.51392 -0.786908 6.8695
93 1 3.77538 -0.779442 9.68443
94 1 0.932216 -1.03363 9.84208
95 1 1.1192 2.1053 6.75458
96 1 3.87187 2.11272 6.93634
97 1 3.80058 2.03059 9.68717
98 1 0.960799 1.74804 9.6823
99 1 6.41532 -0.602211 6.69843
100 1 9.4215 -0.700858 6.99815
101 1 9.53256 -0.805309 9.65349
102 1 6.69238 -0.745514 9.63992
103 1 6.66472 2.01953 6.6256
104 1 9.46035 1.95585 6.8611
105 1 9.49942 1.94118 9.67534
106 1 6.40482 2.06435 9.42466
107 1 12.0976 -0.776479 6.73052
108 1 12.3047 -0.865747 9.65778
109 1 12.2747 2.07762 6.77135
110 1 12.3249 1.96607 9.6282
111 1 1.04353 4.92462 6.84812
112 1 3.87552 4.81636 6.74338
113 1 3.8861 5.05044 9.71164
114 1 1.24166 4.77246 9.54244
115 1 0.939091 7.4511 6.81154
116 1 3.83392 7.59348 6.55079
117 1 3.67201 7.81838 9.47068
118 1 0.702785 7.46014 9.55669
119 1 6.49408 4.70625 6.79234
120 1 9.5781 4.87744 6.70821
121 1 9.38635 4.56113 9.56353
122 1 6.72774 4.87555 9.45638
123 1 6.55855 7.68742 6.68828
124 1 9.37167 7.69772 6.56893
125 1 9.4002 7.47937 9.36173
126 1 6.67024 7.60778 9.46782
127 1 12.4254 4.80096 6.88381
128 1 12.3457 4.87873 9.62706
129 1 12.2722 7.68997 6.72107
130 1 12.273 7.82 9.58763
131 1 1.0294 10.2968 6.68599
132 1 3.88429 10.3712 6.60971
133 1 3.9449 10.3595 9.31401
134 1 1.0801 10.2888 9.59016
135 1 1.02398 13.2434 6.91228
136 1 3.85421 13.1912 6.72096
137 1 3.99687 13.2169 9.64206
138 1 1.22342 13.1117 9.45408
139 1 6.73975 10.4866 6.66826
140 1 9.85295 10.3691 6.9477
141 1 9.66911 10.3509 9.62078
142 1 6.91292 10.4675 9.61259
143 1 6.61637 13.0685 6.71187
144 1 9.39765 13.2553 6.53996
145 1 9.55431 13.2068 9.70675
146 1 6.82553 13.3711 9.49299
147 1 12.3884 10.5211 6.97014
148 1 12.3218 10.6354 9.61897
149 1 12.5794 13.5535 6.70319
150 1 12.4299 13.4023 9.54183
151 1 1.13957 15.9692 6.73295
152 1 4.08272 16.0319 6.77292
153 1 4.33784 16.1424 9.69905
154 1 1.4296 16.0374 9.49266
155 1 1.09353 18.9427 6.75939
156 1 4.08615 18.9097 6.77333
157 1 4.11468 19.0498 9.3796
158 1 1.1803 18.7846 9.65123
159 1 6.70719 15.9955 6.7058
160 1 9.70033 15.9916 6.87896
161 1 9.7074 16.1654 9.62307
162 1 7.02937 16.0199 9.65115
163 1 6.76761 18.8834 6.66991
164 1 9.44779 18.5294 6.88632
165 1 9.84892 19.071 9.4914
166 1 6.99361 18.8112 9.63621
167 1 12.4938 16.1457 6.88398
168 1 12.5225 16.0742 9.75435
169 1 12.4493 19.0647 6.97479
170 1 12.6598 18.8404 9.65427
12146 2 2.41541 20.0451 13.7741
172 1 3.9861 21.8953 6.74093
173 1 3.84536 22.0777 9.59124
174 1 1.16833 21.7198 9.58669
175 1 6.97617 21.5817 6.79718
176 1 9.68347 21.6101 6.882
177 1 9.67017 21.6921 9.74986
178 1 6.7212 21.5607 9.44644
179 1 12.3216 22.0237 6.71852
180 1 12.6021 21.701 9.38635
181 1 1.192 -0.682295 12.7275
182 1 4.00353 -0.690583 12.4565
183 1 0.89016 2.28843 12.5672
184 1 3.78503 2.16162 12.4937
185 1 6.6992 -0.608833 12.4308
186 1 9.49422 -1.01729 12.3517
187 1 6.62028 2.26436 12.3163
188 1 9.53607 1.96938 12.4237
189 1 12.4363 -0.771866 12.3989
190 1 12.3168 1.93789 12.4105
191 1 1.01003 4.99268 12.3665
192 1 3.90134 4.92326 12.5509
193 1 0.886594 7.42807 12.4697
194 1 3.94062 7.73181 12.4196
195 1 6.79365 5.04856 12.1915
196 1 9.51307 4.73315 12.4649
197 1 6.75792 7.74357 12.3801
198 1 9.45089 7.79556 12.1915
199 1 12.5513 4.61485 12.2568
200 1 12.3944 7.54464 12.6132
201 1 1.12225 10.4622 12.3543
202 1 3.74499 10.516 12.3347
203 1 0.883856 13.373 12.4084
204 1 4.01081 13.3088 12.4282
205 1 6.73462 10.3955 12.3855
206 1 9.34076 10.6736 12.4799
207 1 6.61233 13.2632 12.5408
208 1 9.36384 13.4095 12.3292
209 1 12.2487 10.4946 12.2695
210 1 12.2953 13.273 12.5785
211 1 1.39917 16.1619 12.3364
212 1 3.9497 16.0189 12.5894
213 1 1.31166 18.9281 12.2911
214 1 4.02693 18.9323 12.1016
215 1 6.78601 16.0436 12.412
216 1 9.69193 16.2812 12.3528
217 1 6.88462 18.6914 12.4555
218 1 9.80279 19.0132 12.4527
219 1 12.4046 16.1424 12.5767
220 1 12.6305 18.9523 12.6224
221 1 1.16155 21.8763 12.7426
222 1 4.05837 21.6615 12.2857
223 1 6.88564 21.6487 12.4537
224 1 9.58623 21.7842 12.3906
225 1 12.402 21.9276 12.3879
15032 2 13.6402 14.7004 2.65351
12144 2 5.3988 17.1794 13.7188
12131 2 2.50189 3.54294 13.9118
15131 2 13.8579 3.45484 13.7233
15091 2 13.7924 23.1277 5.38522
15012 2 13.7795 3.18872 2.70304
12140 2 11.0243 11.9466 13.9144
12008 2 5.32822 0.393213 2.46656
15111 2 13.6665 11.9204 10.97
12010 2 10.8272 0.392135 2.61212
12125 2 11.2013 20.3548 11.1157
12143 2 8.19692 14.7825 13.8964
12013 2 2.37501 3.39898 2.70226
12124 2 8.19651 23.0616 11.0786
15126 2 13.6017 -2.14547 13.7463
15136 2 13.8056 9.02078 13.6652
12017 2 8.21995 3.25774 2.45205
12018 2 5.17726 6.14711 2.42145
12135 2 11.1197 6.04128 13.8866
12020 2 10.9851 6.15589 2.36856
12113 2 5.3363 9.03982 10.7831
12104 2 8.15625 0.736904 11.0608
12023 2 2.4404 9.05482 2.56736
440 1 12.3396 18.5376 1.23898
12022 2 2.56785 11.9208 -0.212875
12107 2 2.4878 6.32945 10.9216
12027 2 8.01054 8.93444 2.59725
12028 2 5.36331 11.8702 2.71735
15062 2 13.4929 3.38045 8.37288
12030 2 10.762 12.0716 2.57495
12102 2 2.61104 0.601725 11.207
12114 2 7.97317 12.0947 11.0229
12033 2 2.52107 14.7875 2.48249
12141 2 2.60784 14.5106 13.9541
12100 2 11.02 23.1314 8.1875
12099 2 11.0746 20.2893 5.39822
12037 2 8.13046 14.889 2.73326
12038 2 5.2405 17.5916 2.37281
12098 2 5.44102 23.2776 8.30866
12040 2 10.9519 17.4275 2.72801
12097 2 8.18858 20.0619 8.22011
15051 2 13.5716 0.43994 5.31856
12043 2 2.5673 20.3266 2.52789
12123 2 5.47209 20.1622 11.0725
12096 2 8.22994 22.8539 5.63164
12095 2 5.47404 20.3073 5.43994
12047 2 8.20505 20.3979 2.59693
12048 2 5.19949 23.0375 2.4995
12115 2 10.9185 9.14552 10.9845
12050 2 11.0745 23.323 2.48612
6024 1 12.6058 7.78017 4.08087
12052 2 2.34929 0.547391 5.58662
12112 2 2.51866 11.7957 10.9018
12122 2 2.49548 22.9965 11.0923
12110 2 10.9281 3.35135 11.0488
12056 2 7.95476 0.556462 5.30915
12109 2 8.21939 6.21427 10.714
12058 2 5.18453 0.642061 8.25009
12108 2 5.2047 3.39617 10.9577
12060 2 10.8441 0.445882 8.08648
12120 2 11.0036 14.8841 10.8961
12062 2 2.4024 6.24361 5.42492
12063 2 2.49072 3.34689 8.21383
12119 2 8.46473 17.5698 11.0552
12065 2 5.2798 3.33075 5.30136
12066 2 7.93552 6.1236 5.44196
12067 2 8.12049 3.30275 8.15716
12068 2 5.20959 6.25501 8.12272
12069 2 10.7505 3.36753 5.47204
12070 2 10.9726 6.19541 8.03987
12139 2 5.48799 11.7395 13.9519
12072 2 2.59955 11.9859 5.38275
12073 2 2.5403 9.02894 7.97037
12118 2 5.39608 14.5532 10.9547
12075 2 5.24966 9.05028 5.23915
12076 2 8.10728 11.699 5.32665
12077 2 8.35592 9.10671 8.24023
12078 2 5.34974 11.7981 8.11695
12079 2 10.7699 8.91588 5.219
12080 2 10.955 11.971 8.2202
15042 2 13.7275 20.2595 2.4303
12082 2 2.7366 17.5214 5.32965
12083 2 2.69224 14.6034 8.08335
12117 2 2.56784 17.4316 11.0744
12085 2 5.19464 14.7364 5.20329
12086 2 8.09864 17.5527 5.32988
12087 2 8.22706 14.5539 7.92848
12088 2 5.49963 17.4859 8.29734
12089 2 11.1625 14.8223 5.43873
12090 2 11.0525 17.5762 8.23641
15106 2 13.8099 6.16347 11.0183
12092 2 2.60979 23.17 5.37897
12093 2 2.61756 20.2803 8.2081
15022 2 13.6287 9.12454 2.44027
12130 2 11.0568 0.625953 13.8548
15072 2 13.6697 9.09101 8.27675
12133 2 8.11687 3.5891 13.702
15071 2 13.8872 11.8727 5.42834
12053 2 2.45136 -2.11805 8.3756
15101 2 13.8499 0.371433 10.9089
12136 2 2.56929 9.13479 13.7576
12021 2 0.225066 9.175 -0.115898
12148 2 8.18577 20.3438 13.9151
15121 2 13.7758 23.2339 10.9873
12149 2 5.3845 22.8537 13.7618
12145 2 11.0527 17.4343 13.8797
12129 2 5.41438 0.742818 13.8479
12134 2 5.37947 6.36693 13.6827
15146 2 13.8237 20.3661 13.7089
12138 2 8.18205 9.04482 13.6987
12042 2 2.49728 23.2947 -0.245551
12039 2 10.8161 14.8991 0.129262
15011 2 13.8539 6.19562 -0.0903844
15041 2 13.837 23.0648 -0.0731024
12032 2 2.46394 17.5404 -0.0880973
12002 2 2.49148 0.577814 -0.100239
12046 2 8.20944 23.1383 -0.138998
15141 2 13.835 14.7859 13.8348
12137 2 -0.161114 11.8466 13.8455
15031 2 13.7312 17.3116 -0.0156718
226 1 4.04269 -0.749213 15.5033
227 1 1.27938 -0.791077 15.2742
228 1 4.00207 2.15181 15.3613
229 1 0.953787 2.06353 15.4899
230 1 9.69726 -1.1469 15.2564
231 1 6.88332 -0.57415 15.0281
232 1 9.96061 1.95332 15.4286
233 1 7.03713 2.19043 15.1319
234 1 12.2216 -0.682312 15.2098
235 1 12.4662 2.11543 15.112
236 1 3.93943 5.05041 15.3766
237 1 1.01221 4.82581 15.2674
238 1 3.7915 7.66482 15.2994
239 1 0.919212 7.82944 14.8982
240 1 9.77089 4.63706 15.1971
241 1 6.57529 4.85585 15
242 1 9.50681 7.38408 14.9732
243 1 6.8345 7.54618 15.1054
244 1 12.5995 4.84317 15.1776
245 1 12.2594 7.51657 15.1636
246 1 3.99166 10.2954 15.1423
247 1 1.22112 10.4932 15.3239
248 1 3.93059 13.0236 15.1478
249 1 1.27189 13.194 15.4459
250 1 9.7305 10.3346 15.0257
251 1 6.92763 10.2585 15.3686
252 1 9.61741 13.2863 15.3136
253 1 6.72726 13.0443 15.4059
254 1 12.7569 10.2582 15.2898
255 1 12.4356 13.1383 15.2564
256 1 3.89178 15.7339 15.2396
257 1 1.20843 15.9128 15.193
258 1 4.0122 18.6802 15.0707
259 1 1.09257 18.6876 15.3099
260 1 9.75088 15.9174 15.0986
261 1 6.63517 16.1233 15.291
262 1 9.56819 18.7523 15.3253
263 1 6.92414 19.0507 15.4016
264 1 12.5866 15.9503 15.3455
265 1 12.307 19.0024 15.332
266 1 3.98863 21.6014 15.2797
267 1 1.30301 21.7108 15.5765
268 1 9.84246 21.6041 15.2107
269 1 6.89444 21.6983 15.2664
270 1 12.6051 21.9117 15.1643
271 1 1.04646 -0.973264 18.2195
272 1 4.10837 -0.72693 18.2041
273 1 3.83963 -0.736398 20.8409
274 1 0.902726 -0.743453 21.053
275 1 0.896525 1.7599 18.2678
276 1 3.91389 1.89166 18.3143
277 1 3.68585 1.92318 21.0111
278 1 0.953622 2.06398 21.1174
279 1 7.16504 -0.646879 18.0236
280 1 9.83022 -0.952061 18.0961
281 1 9.53954 -0.767353 21.0354
282 1 6.68043 -0.702862 20.8028
283 1 6.86059 1.89306 17.8935
284 1 9.64029 1.9783 18.1036
285 1 9.60651 1.97682 20.9261
286 1 6.73092 2.03141 20.6962
287 1 12.4321 -0.827579 18.1386
288 1 12.4413 -0.617464 20.8594
289 1 12.575 2.19482 18.2615
290 1 12.4552 2.27328 20.9286
291 1 1.00007 4.67372 18.1909
292 1 3.84429 4.66799 18.2207
293 1 3.93531 4.90727 20.9691
294 1 1.03793 4.8145 21.0683
295 1 1.17365 7.5407 17.8393
296 1 3.89658 7.69376 17.9783
297 2 5.00461 9.07546 22.2227
298 1 3.73264 7.56617 21.077
299 1 6.63829 5.07282 18.0318
300 1 9.51408 4.73912 18.1971
301 1 9.40036 4.60675 20.7466
302 1 6.6479 4.78684 20.8262
303 1 6.65766 7.72867 17.8432
304 1 9.65761 7.40889 17.9704
305 1 9.44926 7.62193 20.9327
306 1 6.81263 7.75679 20.6681
307 1 12.4383 4.96782 17.9312
308 1 12.3978 5.02582 20.8968
309 1 12.4693 7.5717 17.9227
310 1 12.2826 7.72681 20.8712
311 1 0.960996 10.6138 17.8798
312 1 3.68014 10.4551 18.097
313 1 3.89435 10.504 20.8052
314 1 1.05138 10.5792 21.0807
315 1 0.963802 13.4532 18.0965
316 1 3.89124 13.2541 18.0421
317 1 3.95357 13.1926 20.9923
318 1 1.28836 13.4374 20.9601
319 1 6.4596 10.318 18.0837
320 1 9.62209 10.3423 17.7632
321 1 9.4957 10.281 20.4962
322 1 6.82657 10.3442 21.0255
323 1 6.87686 13.3719 18.1254
324 1 9.75247 13.0375 18.1481
325 1 9.35397 13.2909 20.603
326 1 6.63817 13.2806 20.8911
327 1 12.2575 10.2591 18.2527
328 1 12.3155 10.3772 20.9312
329 1 12.6177 13.2882 18.0181
330 1 12.5988 13.3689 20.7726
331 1 1.30258 16.2581 18.2048
332 1 3.9704 16.1592 18.2658
333 1 3.89265 16.0667 20.8876
334 1 1.16338 16.5792 20.8475
335 1 0.89897 19.1605 18.217
336 1 3.84997 19.1754 17.7349
337 1 3.957 18.9496 20.652
338 1 1.17928 19.2266 20.9601
339 1 6.82233 16.1725 18.0405
340 1 9.56266 16.2937 17.9693
341 1 9.43005 16.3467 20.6981
342 1 6.70898 16.1734 20.9295
343 1 6.6989 18.8509 18.1374
344 1 9.7264 18.9216 18.3631
345 1 9.55765 19.0812 21.1079
346 1 6.70688 19.0896 21.1024
347 1 12.4982 16.1813 17.8345
348 1 12.8968 16.1962 20.7538
349 1 12.4709 18.8935 18.1519
350 1 12.4875 18.887 20.917
351 1 1.05399 21.8431 18.0322
352 1 4.10983 21.7679 17.789
353 1 4.31643 21.9137 20.7074
354 1 1.36079 21.8682 20.8594
355 1 7.1087 21.6773 18.2598
356 1 9.72413 21.6361 18.2004
357 1 9.44099 21.7259 20.9191
358 1 6.79853 21.9572 20.8405
359 1 12.2478 21.8276 18.3557
360 1 12.1843 21.6915 21.2944
361 1 1.12291 -1.0181 23.9248
362 1 3.87759 -0.813221 23.7827
363 1 3.98891 -0.779221 26.5342
364 1 1.16492 -0.9509 26.6743
365 1 0.958675 1.8281 23.8025
366 1 3.75717 2.17446 23.7229
367 1 3.88898 2.0536 26.619
368 1 0.972237 2.05865 26.6909
369 1 6.81924 -0.875775 23.6542
370 1 9.63446 -0.512923 23.7865
371 1 9.48414 -0.807572 26.5697
372 1 6.74212 -0.791489 26.2429
373 1 6.59726 2.13733 23.5506
374 1 9.53051 2.16922 23.7907
375 1 9.48935 2.05227 26.7193
376 1 6.68533 2.14839 26.308
377 1 12.4218 -0.956252 23.9589
378 1 12.2537 -0.91537 26.6722
379 1 12.4066 2.18057 23.8207
380 1 12.1893 1.96156 26.4748
381 1 1.02294 4.89487 23.9873
382 1 3.85992 4.97327 23.8634
383 1 3.72898 4.86847 26.3483
384 1 0.747586 4.86461 26.7824
385 1 1.07833 7.82199 23.9768
386 1 4.06061 7.72781 23.8737
387 1 3.92818 7.52647 26.4994
388 1 1.18092 7.75328 26.7713
389 1 6.72711 4.95901 23.4539
390 1 9.65992 5.00983 23.5111
391 1 9.32058 5.16216 26.1798
392 1 6.47045 4.83408 26.4885
393 1 6.99127 7.57836 23.4474
394 1 9.75103 8.12209 23.8002
395 1 9.58198 7.81478 26.5357
396 1 6.71522 7.72081 26.4679
397 1 12.399 4.85964 23.7803
398 1 12.2956 5.06084 26.5252
399 1 12.5654 7.63518 23.8717
400 1 12.5095 7.89791 26.6561
401 1 1.17739 10.5725 23.9695
402 1 3.87381 10.4805 23.633
403 1 4.02422 10.5382 26.3722
404 1 1.05558 10.591 26.6641
405 1 1.27344 13.3048 23.9265
406 1 4.06423 13.1441 23.7544
407 1 3.77651 13.2823 26.5039
408 1 1.04188 13.5323 26.5378
409 1 6.92038 10.2596 23.8423
410 1 9.64762 10.7812 23.2416
411 1 9.60727 10.5928 26.3082
412 1 6.5563 10.6775 26.7907
413 1 6.69032 13.5586 23.7738
414 1 9.30223 13.1925 24.2907
415 1 9.35928 13.2745 26.7369
416 1 6.52187 13.3629 26.6229
417 1 12.5941 10.7694 23.7472
418 1 12.3401 10.5577 26.6528
419 1 12.6083 13.1358 23.994
420 1 12.3834 13.3249 26.8004
421 1 1.14898 16.1642 23.6156
422 1 3.9533 16.2987 23.6789
423 1 3.89662 16.341 26.5179
424 1 1.00341 16.1765 26.6309
425 1 1.3026 18.7273 23.8229
426 1 3.89428 19.1407 23.5589
427 1 3.92288 19.0502 26.6773
428 1 1.14483 19.1983 26.6838
429 1 6.60421 16.2213 23.7533
430 1 9.46197 18.9508 26.4942
431 1 9.59509 16.1331 26.8466
432 1 6.73158 16.1987 26.5461
433 1 6.39443 19.2032 23.9752
434 1 9.30252 19.0142 23.6923
435 1 12.3234 18.858 23.5896
436 1 6.65942 18.843 26.5868
437 1 12.5281 16.0358 26.6555
438 1 12.259 18.9882 26.5946
439 1 12.5976 16.0083 23.8627
15161 2 13.8155 6.37913 16.6647
441 1 1.32064 21.7049 23.6184
442 1 3.98149 22.1625 23.6343
443 1 3.98274 21.9096 26.4513
444 1 1.10808 21.9651 26.3944
445 1 6.56243 21.8545 23.9522
446 1 9.41704 21.8176 23.8876
447 1 9.44158 21.8244 26.7139
448 1 6.83293 21.8188 26.6259
449 1 12.434 21.8845 24.1828
450 1 12.2907 21.7376 26.7314
15192 2 13.9091 20.2913 19.5832
12250 2 10.8953 23.1007 25.2253
12155 2 5.50525 -2.011 16.8546
12157 2 8.27822 -1.99384 19.5301
12049 2 10.8124 20.3785 28.0189
12227 2 7.95521 9.15775 25.5774
12249 2 10.8399 20.3163 22.3879
12226 2 8.41766 12.5946 22.5339
12225 2 8.27284 9.17681 22.145
15232 2 13.8274 14.6767 25.4174
12223 2 2.53332 9.09815 25.203
12248 2 5.33472 23.3383 25.2042
12222 2 2.59901 11.8678 22.2905
12228 2 5.29747 11.8875 25.1777
12150 2 11.1431 22.9567 13.9424
12220 2 10.8501 6.1932 25.141
12247 2 8.11487 20.4575 25.1272
15241 2 13.7295 23.015 22.1577
6309 1 1.21825 7.46611 20.8735
15172 2 13.7886 9.13849 19.5827
12219 2 10.977 3.38474 22.2335
12246 2 8.16363 23.1676 22.3651
15181 2 13.8259 17.5542 16.5573
12218 2 5.31656 6.14006 25.1474
15151 2 13.8232 0.665421 16.5431
12245 2 5.38603 20.6672 22.3898
12152 2 2.48095 0.414198 16.8871
12234 2 -0.210391 17.4654 25.1249
12243 2 2.51909 20.5127 25.1207
15242 2 13.7487 20.254 25.3605
12156 2 8.46741 0.542762 16.5966
12171 2 -0.126921 9.09805 16.5726
12158 2 5.33283 0.649716 19.5213
15201 2 13.8161 0.758426 22.2604
12160 2 11.0721 0.72069 19.5331
12242 2 2.35261 23.1898 22.3405
12162 2 2.4532 6.14056 16.6555
12163 2 2.36377 3.19579 19.5388
12240 2 10.9113 17.5771 25.0079
12165 2 5.44679 3.37954 16.5992
12166 2 8.25209 6.17111 16.6334
12167 2 8.16611 3.30462 19.3104
12168 2 5.22942 6.20377 19.5028
12169 2 11.1404 3.60697 16.6002
12170 2 11.0291 6.27403 19.4795
12239 1 9.33734 16.144 23.7479
12172 2 2.6172 11.9019 16.6743
12173 2 2.36307 9.01605 19.3939
12238 2 5.21586 17.5963 25.0653
12175 2 5.18565 8.91688 16.5944
12176 2 8.28706 11.7291 16.4852
12177 2 8.0642 8.99593 19.0171
12178 2 5.39215 11.8651 19.4461
12179 2 11.1723 8.87145 16.588
12180 2 11.0566 11.8212 19.5151
12237 2 8.08211 14.8878 25.1959
12182 2 2.51689 17.562 16.7205
12183 2 2.52435 14.7392 19.3783
12236 2 8.20451 17.4311 22.3431
12185 2 5.54935 14.6678 16.6974
12186 2 8.26829 17.5617 16.6565
12187 2 8.26294 14.8278 19.4939
12188 2 5.46148 17.5212 19.6024
12189 2 11.1486 14.6518 16.6714
12190 2 11.1378 17.3389 19.6818
12235 2 5.37089 14.7824 22.2754
12192 2 2.62235 22.9172 16.7488
12193 2 2.47153 20.2313 19.4976
15182 2 13.9775 14.6101 19.4379
12195 2 5.40118 20.3267 16.6013
12196 2 8.16597 23.1825 16.7588
12197 2 8.17073 20.2473 19.5757
12198 2 5.43882 23.1596 19.3459
12199 2 10.9176 20.176 16.7945
12200 2 10.9221 23.068 19.6197
12233 2 2.38125 14.877 25.2586
12202 2 2.33788 0.444577 22.3095
15222 2 13.841 9.18634 25.3385
12232 2 2.43267 17.6895 22.2473
15171 2 13.8829 11.8493 16.6055
12206 2 7.99576 0.692316 22.1724
15001 2 13.7138 0.478218 27.9544
12208 2 5.16927 0.76803 25.1583
15162 2 13.904 3.63803 19.5697
12210 2 10.9611 0.557772 25.2257
12230 2 11.1028 11.9275 25.4164
12212 2 2.38596 6.02044 22.3844
12213 2 2.40605 3.31361 25.2678
12229 2 11.5818 9.22233 22.6497
12215 2 5.31512 3.52747 22.2365
12216 2 8.16846 6.10357 22.0427
12217 2 8.09321 3.42191 25.1512
12231 2 -0.136693 14.787 22.2325
12019 2 11.1827 3.40628 27.9979
12015 2 5.32004 3.53697 27.9502
15231 2 13.8935 17.3081 22.3475
15191 2 13.7551 22.9955 16.9014
15221 2 13.8258 12.1976 22.3388
12012 2 2.33552 6.02575 27.8884
12029 2 10.9101 9.07215 27.987
15021 2 13.9091 11.9283 28.0936
15212 2 13.8407 3.49489 25.0142
12016 2 8.23295 6.21938 27.9561
12045 2 5.35724 20.3108 27.8577
12036 2 8.08275 17.69 27.9969
12191 2 -0.220172 20.5057 16.7554
12207 2 8.33373 -2.22438 24.9308
12026 2 7.96446 12.0317 28.0171
12035 2 5.3399 14.7863 27.8454
12025 2 5.30521 9.20668 27.8949
12006 2 8.21956 0.566285 28.0175
451 1 1.08238 24.788 1.22904
452 1 3.91166 24.5336 1.1566
453 1 4.0297 24.5643 3.85972
454 1 1.20272 24.4794 3.89661
455 1 6.74266 24.5119 1.218
456 1 9.57359 24.57 1.18353
457 1 9.66671 24.6294 3.89293
458 1 6.85798 24.4843 3.99076
459 1 12.535 27.6267 0.874882
460 1 12.5098 24.6097 3.99945
461 1 1.12437 30.3001 0.901212
462 1 3.81555 27.2399 1.03477
463 1 3.87306 27.4905 3.88179
464 1 1.35269 30.0226 3.69691
465 1 1.01493 33.0369 1.1455
466 1 4.00018 30.2991 1.03891
467 1 3.9338 30.2883 3.94611
468 1 0.747697 32.8879 3.74106
469 1 6.77864 27.2769 1.15639
470 1 9.77882 27.2227 1.22187
471 1 9.66132 27.5151 4.09413
472 1 6.79136 27.2885 3.93819
473 1 6.66991 30.0542 1.29372
474 1 9.7576 30.1773 1.27272
475 1 9.40053 30.381 3.77056
476 1 6.47189 29.9127 4.13649
477 1 12.4729 30.4842 0.840341
478 1 12.397 27.2831 3.91817
479 2 10.9127 31.822 2.23168
480 1 12.2814 30.385 3.69598
481 1 0.85767 36.2186 0.968663
482 1 4.12174 32.9919 1.12291
483 1 3.87593 33.0207 4.13523
484 1 3.57204 36.0858 1.49962
15271 2 13.6955 40.1883 -0.232535
488 1 1.43194 38.7843 1.41309
487 1 3.58644 35.9587 4.26318
1105 1 6.51217 49.9913 12.7359
489 1 6.97683 32.9631 1.09717
490 1 9.83973 33.0156 0.695304
491 1 9.41485 33.3072 3.5518
492 1 6.69653 33.0922 3.96865
15336 2 13.6642 48.707 8.11003
494 1 9.47737 36.2209 0.973958
495 1 6.56093 36.0663 3.6229
496 1 6.73204 38.8722 3.84888
497 1 12.6553 33.1977 1.55908
498 1 11.9742 32.9146 3.96914
499 1 12.2245 36.057 0.87106
500 1 12.4992 35.6343 3.65676
15346 2 13.6374 34.5292 10.9856
502 1 6.76831 38.7378 1.06629
503 1 3.88205 38.5925 6.50557
504 1 3.94817 38.6277 3.72141
505 1 1.06706 41.6253 1.35783
506 1 3.86569 41.8532 1.21337
507 1 4.04181 41.806 3.91017
508 1 1.16296 41.5653 4.29456
15356 2 13.6949 45.836 10.9587
15316 2 13.5699 40.1938 5.49589
511 1 9.50296 36.2054 3.74606
512 1 9.66597 39.1142 0.956023
513 1 6.78767 41.5582 1.14995
514 1 9.419 41.6938 1.00701
515 1 9.42039 41.5786 4.21065
516 1 6.65311 41.6519 3.8819
517 1 12.3902 38.7771 1.16931
518 1 12.5 38.4607 4.15391
519 1 12.2271 41.4408 1.04893
520 1 12.2757 41.3568 3.98667
521 1 0.972979 44.4199 1.0569
522 1 3.87831 44.4258 1.1531
523 1 4.04018 44.6474 3.84596
524 1 1.25752 44.3203 3.99821
525 1 1.29687 47.0774 1.19731
526 1 4.00059 47.2859 0.99658
527 1 3.83863 47.1896 4.16348
528 1 0.993865 47.2794 3.98935
529 1 6.82797 44.3225 1.01999
530 1 9.86783 44.4285 1.20403
531 1 9.7301 44.3879 3.93448
532 1 7.034 44.4551 4.05891
533 1 6.57923 47.4142 1.35903
534 1 9.35979 47.1598 1.22856
535 1 9.32822 47.4031 3.86139
536 1 6.45033 47.3121 4.22648
537 1 12.4419 44.6809 1.07647
538 1 12.6029 44.3866 3.89781
539 1 12.4937 47.3919 1.32367
540 1 12.3345 47.0927 4.1858
541 1 1.04796 27.3597 4.28928
542 1 4.08559 24.5636 6.87047
543 1 3.95657 24.6376 9.71407
544 1 0.994348 24.3556 9.60802
545 1 6.86753 24.4683 6.7043
546 1 9.40477 24.4571 6.60555
547 1 9.34629 24.464 9.39001
548 1 6.70987 24.5399 9.77335
549 1 12.1075 24.7758 6.85859
550 1 12.3592 24.6782 9.63709
551 1 1.24274 27.5827 1.42611
552 1 3.49039 27.4174 6.8388
553 1 3.83333 27.4194 9.66432
554 1 1.25889 27.0911 9.8657
555 1 1.08681 30.2759 6.45685
556 1 3.94943 30.3426 6.81978
557 1 3.75504 30.3231 9.59676
558 1 0.842095 33.1593 9.67177
559 1 6.543 27.2672 6.77777
560 1 9.37722 27.2947 6.92024
561 1 9.37145 27.18 9.74503
562 1 6.53703 27.3168 9.57137
563 1 6.7536 30.1203 6.91396
564 1 9.83177 30.0516 6.69276
565 1 9.46544 29.9801 9.70365
566 1 6.69334 30.0186 9.5275
567 1 12.1211 27.6391 6.70974
568 1 12.1907 27.2614 9.74444
569 1 12.597 30.4504 6.55628
570 1 12.4354 30.1638 9.60454
571 1 0.816847 35.5865 3.99518
572 1 3.68902 33.1382 6.73853
573 1 3.86681 33.2902 9.57121
574 1 0.641086 36.0891 6.89398
575 1 1.00587 38.9378 4.07947
576 1 3.64836 35.7997 6.9354
577 1 3.69786 36.0323 9.76343
578 1 0.939421 35.9238 9.55268
579 1 6.67004 32.9714 6.72131
580 1 9.28414 32.6992 6.58388
581 1 9.59016 32.6773 9.52397
582 1 6.82484 32.8436 9.61022
583 1 6.31893 35.5316 6.35123
584 1 9.61322 35.4581 6.33664
585 1 9.59632 35.4956 9.81988
586 1 6.19015 35.6191 9.89804
587 1 12.3048 33.1504 6.99059
588 1 12.2358 33.1042 9.71658
589 1 12.3524 35.8747 6.75428
590 1 12.4511 36.0874 9.68377
591 1 1.16251 38.7979 6.87686
592 1 3.85078 38.6535 9.6863
593 1 6.77279 38.7762 9.77804
594 1 0.95201 38.7884 9.74566
595 1 0.806805 41.8012 7.13116
596 1 3.80584 41.5721 6.95048
597 1 3.8237 41.483 9.66911
598 1 0.963468 41.539 9.73407
599 1 6.30802 39.0823 6.70738
600 1 9.71639 38.9043 6.69065
601 1 9.8454 39.2315 9.84907
602 1 6.51819 41.6825 9.63378
603 1 9.39732 41.7377 7.01952
604 1 9.65011 44.4296 6.803
605 1 9.71214 41.7246 9.54188
606 1 6.60321 41.8479 6.75358
607 1 12.4829 38.7534 6.76098
608 1 12.5364 38.9495 9.51949
609 1 12.2325 41.6399 6.86461
610 1 12.3376 41.8077 9.59209
611 1 0.898614 44.3858 6.83762
612 1 3.83964 44.4335 6.87244
613 1 3.71638 44.1753 9.79508
614 1 1.01373 44.2764 9.81488
615 1 1.05342 47.1318 6.81727
616 1 4.01406 47.261 6.92048
617 1 3.8931 47.1961 9.63394
618 1 1.07529 47.0747 9.75896
619 1 6.85932 44.7502 6.88579
620 1 9.43812 47.2233 6.78595
621 1 9.55231 44.4493 9.84724
622 1 6.35626 44.6037 9.64487
623 1 6.53313 47.6326 6.88867
1018 1 12.3464 49.9456 9.73832
625 1 9.66668 47.1341 9.55091
626 1 6.73165 47.3996 9.74395
627 1 12.3513 44.403 6.82369
628 1 12.1929 44.3717 9.70528
629 1 12.2517 47.5786 6.71207
630 1 12.4519 47.1349 9.5853
631 1 1.13862 24.6787 12.3327
632 1 3.83067 24.5879 12.4336
633 1 6.71189 24.3992 12.5379
634 1 9.51845 24.7239 12.3816
635 1 12.4611 24.6717 12.3863
636 1 1.05581 27.4323 12.5369
637 1 3.88041 27.6602 12.4246
638 1 1.08086 30.3636 9.65082
639 1 3.97013 30.569 12.4516
640 1 6.59035 27.3769 12.6666
641 1 9.45432 27.4657 12.4496
642 1 6.76663 30.1661 12.4254
643 1 9.65814 30.2103 12.65
644 1 12.2175 27.3462 12.6378
645 1 12.3755 30.3287 12.4993
646 1 1.06275 33.1944 12.3255
647 1 3.67985 33.2752 12.2425
648 1 0.917676 36.0389 12.4892
649 1 3.68292 35.9313 12.7385
650 1 6.3976 33.0031 12.4711
651 1 9.48995 33.042 12.7192
652 1 6.58584 35.8812 12.6592
653 1 9.38386 35.8004 12.5842
654 1 12.2518 33.154 12.5403
655 1 12.1999 35.8036 12.4415
656 1 0.997846 38.7956 12.7075
657 1 3.79603 38.7442 12.6548
658 1 1.03365 41.5111 12.6468
659 1 3.86889 41.5508 12.447
660 1 6.66022 38.8101 12.7211
661 1 9.47174 38.7084 12.5592
662 1 6.58654 41.392 12.5243
663 1 9.60019 41.5389 12.5578
664 1 12.2986 38.7655 12.3983
665 1 12.4774 41.3946 12.4408
666 1 1.16234 44.463 12.5178
667 1 3.8949 44.447 12.6469
668 1 1.20382 47.2859 12.3404
669 1 3.92605 47.1563 12.6927
670 1 6.62884 44.1562 12.4001
671 1 9.21452 44.4214 12.6606
672 1 6.64112 47.2209 12.615
673 1 9.40046 47.0923 12.3438
674 1 12.0765 44.3142 12.4716
675 1 12.3157 47.2553 12.5226
12363 2 10.8846 48.3746 11.0029
15378 2 13.6285 42.933 13.9783
12253 2 2.42064 26.1128 2.46641
12362 2 5.13076 48.6923 11.2129
6645 1 0.913766 30.3965 12.3714
15327 2 13.7972 42.9784 8.13626
12257 2 8.10697 25.8418 2.53424
12258 2 5.32089 28.5874 2.5104
15272 2 13.8589 37.4832 2.66032
12260 2 11.0389 28.4606 2.52668
15281 2 13.8187 45.7864 -0.265215
15368 2 13.6659 31.7436 13.8831
12263 2 2.53809 31.5099 2.43374
12360 2 10.9334 42.8873 11.1187
15282 2 13.7248 43.0719 2.51548
12367 2 5.26925 28.8571 13.9139
12267 2 7.59155 31.6242 2.62533
12268 2 5.01751 34.5866 2.66483
15296 2 13.8468 28.634 5.48802
12270 2 10.8323 35.0218 2.5009
12359 2 8.02557 45.5172 11.126
15291 2 13.8575 48.4157 2.70141
12273 2 2.26843 37.2687 3.05238
12358 2 5.22939 42.8844 11.1352
12348 2 5.28459 31.655 11.0127
15297 2 13.7289 25.9473 8.19588
12277 2 8.06733 37.6156 2.6205
12278 2 5.40095 40.2832 2.42811
12295 2 11.0333 48.6231 -0.136001
12280 2 10.9682 40.2423 2.55453
89 1 12.5008 24.5952 1.23004
12347 2 2.50173 34.5256 10.9934
12283 2 2.60314 43.0278 2.68327
486 1 4.14197 38.98 0.604346
12350 2 10.7661 31.5436 11.2026
12378 2 10.9176 40.0746 13.8021
12287 2 8.19791 43.0016 2.54315
12288 2 5.17715 46.135 2.69187
15363 2 13.7342 25.9281 13.8554
12290 2 10.9251 46.0074 2.80691
493 1 6.46126 35.8495 0.928365
12292 2 2.38837 48.6694 2.62948
12352 2 2.4147 39.9813 11.0781
12294 2 7.95191 48.7701 2.58949
15317 2 13.8561 37.395 8.26438
12357 2 2.43434 45.7605 11.1933
12297 2 2.55618 28.9326 5.21725
12298 2 2.56551 25.8276 8.35629
12299 1 0.850339 33.1626 6.86351
12300 2 5.4254 25.835 5.2541
12301 2 8.00656 28.6611 5.41728
12302 2 7.91599 25.9071 8.21334
12303 2 5.20442 28.7355 8.31826
12304 2 10.7567 26.0014 5.43846
12305 2 10.7504 28.7798 8.31667
171 1 1.10559 24.6614 6.63449
12307 2 2.20558 34.309 5.42821
12308 2 2.2575 31.7768 8.20058
12355 2 10.7911 37.2874 10.964
12310 2 5.26568 31.7063 5.51158
12311 2 8.02757 34.3567 5.37685
12312 2 8.15203 31.4753 8.10855
12313 2 5.34058 34.5653 8.03352
12314 2 10.9375 31.3516 5.43584
12315 2 10.8662 34.4323 8.34937
12354 2 8.25037 40.123 10.9493
12317 2 2.64626 40.2111 5.56862
12318 2 2.32456 37.2166 8.10229
15306 2 13.7207 34.2596 5.33221