ITEM: TIMESTEP
70000
ITEM: NUMBER OF ATOMS
18000
ITEM: BOX BOUNDS pp pp pp
-3.9362994233406695e-01 2.7733629942334140e+01
-4.8343377372717260e+00 3.3291433773728812e+02
-3.9517867274156016e-01 2.7735178672742880e+01
ITEM: ATOMS id type q x y z
1 2 2.2208 5.2842 0.685215 5.37383
2 2 2.2208 5.23971 6.41508 5.32577
3 1 -1.1104 1.05174 -3.58892 1.03875
5 1 -1.1104 1.01032 2.08992 1.16938
15 1 -1.1104 1.07548 -3.28425 3.82093
16 1 -1.1104 1.18175 2.09706 4.04581
21 2 2.2208 5.20092 -2.15962 2.59192
22 2 2.2208 5.15716 3.45148 2.61782
23 1 -1.1104 0.91635 -0.711546 1.10991
25 1 -1.1104 1.13251 4.84974 1.1735
31 1 -1.1104 1.07874 -0.660585 3.99124
32 1 -1.1104 1.14052 4.88183 3.96045
35 2 2.2208 2.41662 0.655414 2.67374
36 2 2.2208 2.50317 6.31427 2.44739
37 1 -1.1104 3.84447 -3.58017 1.20679
39 1 -1.1104 3.66888 2.00085 1.28934
43 1 -1.1104 3.8327 -3.547 3.86808
44 1 -1.1104 4.06964 2.00951 4.03331
46 2 2.2208 2.57068 -2.09967 5.26825
47 2 2.2208 2.39252 3.54022 5.34481
48 1 -1.1104 3.6182 -0.668936 1.05548
50 1 -1.1104 3.96696 4.87847 1.02621
52 1 -1.1104 3.89309 -0.68023 3.79072
53 1 -1.1104 3.79999 4.85736 3.79863
17 1 -1.1104 1.06317 7.59353 3.82181
45 1 -1.1104 3.80848 7.78012 3.81938
7 1 -1.1104 0.86046 7.64692 1.18093
41 1 -1.1104 3.7736 7.62992 1.11733
60 2 2.2208 -0.382748 -1.99249 2.38007
64 2 2.2208 -0.366277 0.805497 -0.409445
4 1 -1.1104 1.07485 -3.56737 6.66008
111 2 2.2208 13.7418 0.81837 2.43294
11 1 -1.1104 6.35013 2.17344 0.966509
29 1 -1.1104 6.7802 4.96586 1.01195
34 1 -1.1104 6.58146 4.84642 3.84998
42 1 -1.1104 3.91063 7.83415 6.63833
163 2 2.2208 -0.252821 3.3955 8.10172
164 2 2.2208 -0.254221 -2.25763 7.93645
176 2 2.2208 8.01064 3.60317 10.8896
201 2 2.2208 8.09371 0.790103 13.6954
113 2 2.2208 13.7116 -1.98386 5.45999
162 2 2.2208 2.56971 6.27365 13.6547
55 2 2.2208 2.44409 -2.16566 -0.332126
13 1 -1.1104 6.44297 7.79384 0.933736
9 1 -1.1104 6.81869 -3.5571 1.18733
165 2 2.2208 -0.353076 6.13907 10.8607
20 1 -1.1104 6.66536 7.74677 3.91641
19 1 -1.1104 6.72185 2.07542 3.83653
27 1 -1.1104 6.5683 -0.692846 0.967413
33 1 -1.1104 6.68664 -0.847138 3.84027
18 1 -1.1104 6.65903 -3.51299 3.88398
79 1 -1.1104 12.276 7.88488 3.77852
69 2 2.2208 11.1221 0.712559 5.19476
70 2 2.2208 10.9684 6.29891 5.37237
71 1 -1.1104 12.2835 -3.47985 1.21725
73 1 -1.1104 12.0423 2.02598 1.27513
75 1 -1.1104 12.1483 7.73152 1.11015
77 1 -1.1104 12.3696 -3.5236 4.08795
78 1 -1.1104 12.5273 2.22868 4.02097
80 2 2.2208 10.9727 -2.00758 2.49785
81 2 2.2208 10.7816 3.45791 2.54
82 1 -1.1104 12.3418 -0.487716 0.935053
84 1 -1.1104 12.3513 4.66867 0.931576
86 1 -1.1104 12.4343 -0.744555 3.97324
87 1 -1.1104 12.2716 4.9565 3.59592
88 2 2.2208 8.0464 0.764917 2.38516
89 2 2.2208 8.05363 6.20855 2.49453
90 1 -1.1104 9.52973 -3.399 1.0964
92 1 -1.1104 9.25171 2.07896 1.15621
96 1 -1.1104 9.45853 -3.62886 3.98668
97 1 -1.1104 9.53699 2.00995 3.97679
99 2 2.2208 8.04331 -2.1515 5.32417
100 2 2.2208 8.05079 3.37841 5.23476
101 1 -1.1104 9.55692 -0.608417 1.16993
103 1 -1.1104 9.59125 5.01798 1.15001
105 1 -1.1104 9.52747 -0.789311 3.85299
106 1 -1.1104 9.42389 4.71767 4.16845
98 1 -1.1104 9.54759 7.76516 3.61889
94 1 -1.1104 9.18137 7.81102 0.84315
14 1 -1.1104 6.77498 7.86805 6.50923
10 1 -1.1104 6.73864 -3.47707 6.52764
76 1 -1.1104 12.5108 7.67399 6.46369
197 1 -1.1104 9.55317 -3.49831 12.2959
104 1 -1.1104 9.61687 5.03532 6.88059
91 1 -1.1104 9.59191 -3.57672 6.92126
185 1 -1.1104 12.1789 2.18619 12.2634
72 1 -1.1104 12.3329 -3.52137 6.91455
85 1 -1.1104 12.3512 4.77064 6.62909
167 2 2.2208 -0.493622 0.599263 11.0067
199 1 -1.1104 12.2666 7.80082 9.3977
61 2 2.2208 -0.296477 6.28396 5.30179
195 1 -1.1104 9.24305 2.06495 12.1419
51 1 -1.1104 3.94883 4.95493 6.53759
24 1 -1.1104 1.16251 -0.76985 6.7377
6 1 -1.1104 1.15845 2.20534 6.77487
40 1 -1.1104 3.92663 2.14262 7.07103
38 1 -1.1104 3.91924 -3.54807 6.6173
30 1 -1.1104 6.75108 4.97387 6.74605
188 1 -1.1104 12.4077 -0.652763 12.3142
26 1 -1.1104 1.23056 4.92617 6.67937
49 1 -1.1104 3.85567 -0.738112 6.56863
62 2 2.2208 -0.358378 0.613305 5.17315
8 1 -1.1104 1.32854 7.94768 6.66995
178 2 2.2208 8.05705 0.631402 8.05231
59 2 2.2208 -0.432398 3.57524 2.52968
114 2 2.2208 13.8476 3.52227 5.31864
150 1 -1.1104 3.7891 7.75557 12.4865
126 1 -1.1104 1.03262 7.62011 12.1554
121 1 -1.1104 3.94337 4.95678 9.49648
122 2 2.2208 5.2637 0.920955 10.9016
123 2 2.2208 5.34286 6.35641 11.05
124 1 -1.1104 1.02245 -3.6142 12.3763
125 1 -1.1104 1.09092 1.83722 12.3576
130 1 -1.1104 1.40668 -3.54144 9.53721
131 1 -1.1104 1.02849 1.99285 9.61986
136 2 2.2208 5.2808 -2.02376 8.03084
137 2 2.2208 5.36967 3.59308 8.12196
138 1 -1.1104 1.03865 -1.02344 12.2835
139 1 -1.1104 1.03415 4.73336 12.2416
142 1 -1.1104 0.929866 -0.919077 9.48205
143 1 -1.1104 1.15264 4.79987 9.33243
146 2 2.2208 2.50785 0.744988 8.24379
147 2 2.2208 2.54264 6.4067 8.01561
148 1 -1.1104 4.02134 -3.38912 12.363
149 1 -1.1104 3.81769 2.38847 12.295
151 1 -1.1104 4.17542 -3.43416 9.44227
152 1 -1.1104 3.79475 2.05838 9.7106
153 1 -1.1104 3.90478 7.56318 9.6917
154 2 2.2208 2.55384 -2.04064 11.0261
155 2 2.2208 2.45763 3.57662 10.9314
156 1 -1.1104 4.0299 -0.636941 12.2662
157 1 -1.1104 3.92512 5.07427 12.3101
158 1 -1.1104 3.91694 -0.56612 9.44676
132 1 -1.1104 1.10644 7.79192 9.50891
145 1 -1.1104 6.61653 4.96326 9.48727
141 1 -1.1104 6.78461 5.08395 12.1826
186 1 -1.1104 12.3539 -3.52323 12.3647
135 1 -1.1104 6.66026 7.75231 9.46648
191 2 2.2208 10.8595 3.55067 8.05107
144 1 -1.1104 6.64317 -0.718168 9.55807
140 1 -1.1104 6.83003 -0.49842 12.365
172 1 -1.1104 9.40269 5.026 9.70244
12 1 -1.1104 6.5485 2.13125 6.4421
93 1 -1.1104 9.53998 2.23807 6.62762
28 1 -1.1104 6.64288 -0.671687 6.69992
198 2 2.2208 8.08646 6.39615 8.12714
190 2 2.2208 10.8074 0.70585 10.8422
127 1 -1.1104 6.51086 -3.27066 12.3077
196 2 2.2208 10.9482 -2.01596 8.12174
187 1 -1.1104 12.3198 5.03884 12.3167
194 1 -1.1104 9.54688 7.5684 12.3124
95 1 -1.1104 9.4805 7.57216 6.5934
189 2 2.2208 10.9683 6.35563 10.9478
179 1 -1.1104 12.2135 4.99409 9.32327
134 1 -1.1104 6.69645 2.12873 9.4654
193 1 -1.1104 9.51239 -3.43945 9.54568
181 1 -1.1104 12.4515 7.82622 12.2804
102 1 -1.1104 9.34177 -0.686067 6.67825
175 1 -1.1104 9.57787 -0.622239 12.31
83 1 -1.1104 12.2323 -0.631001 6.6508
174 1 -1.1104 9.62245 4.98482 12.4823
128 1 -1.1104 6.46205 2.21311 12.3194
133 1 -1.1104 6.85645 -3.41802 9.37391
180 1 -1.1104 12.2332 -3.5973 9.64244
129 1 -1.1104 6.64626 7.67291 12.3828
177 2 2.2208 8.07623 -2.0725 10.8905
183 1 -1.1104 9.39935 2.06765 9.50271
192 1 -1.1104 12.2233 2.25984 9.4098
74 1 -1.1104 12.2972 2.14603 6.78415
184 1 -1.1104 12.3565 -0.739236 9.47822
173 1 -1.1104 9.21884 -0.671725 9.35665
182 1 -1.1104 9.44956 7.78638 9.4046
57 2 2.2208 5.2026 0.607575 -0.267451
109 2 2.2208 10.7582 6.31795 -0.242986
159 2 2.2208 5.21619 -1.95589 13.7424
54 2 2.2208 2.38696 3.61023 -0.242793
110 2 2.2208 10.819 0.766516 -0.316685
203 2 2.2208 8.19401 6.38983 13.5894
161 2 2.2208 2.45932 0.66335 13.7714
63 2 2.2208 -0.413007 6.31617 -0.289633
108 2 2.2208 8.05165 -2.10792 -0.284729
214 2 2.2208 5.21045 0.610809 16.6848
215 2 2.2208 5.28228 6.34229 16.5697
216 1 -1.1104 0.934758 -3.54566 18.0425
217 1 -1.1104 0.996935 2.01719 17.9438
222 1 -1.1104 0.960548 -3.76832 15.1462
223 1 -1.1104 1.20262 2.05712 15.3246
228 2 2.2208 5.01092 -2.23144 19.2238
229 2 2.2208 5.31437 3.48957 19.4642
230 1 -1.1104 0.94899 -0.68417 17.9584
231 1 -1.1104 1.28061 4.97263 17.8359
234 1 -1.1104 1.04154 -0.926291 14.9422
235 1 -1.1104 1.09319 4.75357 15.084
238 2 2.2208 2.37744 0.797049 19.3426
239 2 2.2208 2.45921 6.34082 19.3296
240 1 -1.1104 3.61258 -3.62602 17.9683
241 1 -1.1104 3.77901 2.04649 17.9793
377 1 -1.1104 12.286 -0.674071 23.422
243 1 -1.1104 3.78768 -3.6456 15.1546
244 1 -1.1104 3.81605 2.0481 15.0879
246 2 2.2208 2.34779 -2.17265 16.6569
247 2 2.2208 2.41407 3.46456 16.5671
248 1 -1.1104 3.60634 -0.97317 17.9709
249 1 -1.1104 4.05583 4.8845 18.122
250 1 -1.1104 3.83659 -0.925349 15.2682
251 1 -1.1104 4.00038 4.79863 15.4661
245 1 -1.1104 3.8669 7.4669 15.1624
218 1 -1.1104 1.29165 7.92566 17.8291
224 1 -1.1104 1.02759 7.85299 14.9453
300 1 -1.1104 0.927405 -0.503557 20.8077
367 2 2.2208 10.8117 6.31259 22.0024
365 1 -1.1104 12.274 4.88133 26.2371
304 1 -1.1104 3.59041 -3.59505 20.8949
306 1 -1.1104 3.8443 7.91261 20.6218
295 1 -1.1104 0.906918 2.11441 20.7136
387 1 -1.1104 9.19041 7.65297 23.6169
233 1 -1.1104 6.66639 5.03052 17.8606
389 1 -1.1104 9.57057 1.96521 23.5492
257 2 2.2208 2.29701 -4.79822 19.5632
297 1 -1.1104 6.401 -3.46857 20.5986
225 1 -1.1104 6.45551 -3.38909 15.1789
232 1 -1.1104 6.54716 -0.652587 17.961
226 1 -1.1104 6.61618 2.18499 15.1649
227 1 -1.1104 6.82255 7.72303 15.1686
307 1 -1.1104 3.64942 -0.749894 20.7069
308 1 -1.1104 3.87538 4.95042 20.817
242 1 -1.1104 3.93906 7.66359 17.8632
361 1 -1.1104 9.32821 7.5395 26.2102
353 2 2.2208 2.32712 -5.07307 25.0389
56 2 2.2208 5.34127 6.31737 27.7331
385 1 -1.1104 9.34526 1.98522 26.3593
237 1 -1.1104 6.85114 5.22552 15.1517
221 1 -1.1104 6.70995 7.65559 17.9512
298 1 -1.1104 6.56512 2.02652 20.9595
220 1 -1.1104 6.62433 2.15666 18.0831
236 1 -1.1104 6.64392 -0.561246 15.1037
219 1 -1.1104 6.45283 -3.34646 17.9053
260 2 2.2208 10.9159 0.80105 16.5706
261 2 2.2208 10.8182 6.33659 16.473
262 1 -1.1104 12.1364 -3.64096 17.8833
263 1 -1.1104 12.2683 2.12933 17.8689
265 1 -1.1104 12.1392 -3.44008 15.1213
266 1 -1.1104 12.2232 2.26178 15.0717
268 2 2.2208 10.7102 -2.24852 19.2815
269 2 2.2208 10.7626 3.46443 19.379
270 1 -1.1104 12.044 -0.687886 17.9472
271 1 -1.1104 12.2071 4.76495 17.9441
272 1 -1.1104 12.3103 -0.623086 15.0304
273 1 -1.1104 12.4509 4.9822 15.1973
274 2 2.2208 7.91408 0.720854 19.3865
275 2 2.2208 8.17138 6.40505 19.3045
276 1 -1.1104 9.39014 -3.57121 17.8094
277 1 -1.1104 9.40807 2.19797 17.9353
279 1 -1.1104 9.21771 -3.32479 15.1203
280 1 -1.1104 9.35141 2.11408 15.0983
282 2 2.2208 7.85654 -2.06661 16.5455
283 2 2.2208 8.00387 3.53517 16.5496
284 1 -1.1104 9.17391 -0.673183 18.0473
285 1 -1.1104 9.35895 4.78652 17.9712
286 1 -1.1104 9.53886 -0.621913 15.1961
287 1 -1.1104 9.44963 4.82601 15.1015
281 1 -1.1104 9.59056 7.64651 14.9128
267 1 -1.1104 12.2579 7.80217 15.1684
278 1 -1.1104 9.55739 7.77945 17.822
264 1 -1.1104 12.3663 7.42637 18.0534
371 1 -1.1104 12.4916 7.59419 20.8691
375 1 -1.1104 12.2325 4.78867 20.5636
391 2 2.2208 10.8543 -2.13547 24.9807
254 2 2.2208 -0.620856 -2.05869 19.385
390 1 -1.1104 9.35843 -3.561 23.762
369 1 -1.1104 12.0407 -3.56994 20.3532
380 1 -1.1104 9.27496 -3.46786 20.7845
360 2 2.2208 8.09436 -1.95621 22.1454
296 1 -1.1104 0.958843 7.73248 20.7038
294 1 -1.1104 0.860507 -3.40169 20.7836
171 2 2.2208 -0.306582 -2.26753 13.7058
301 1 -1.1104 0.987666 4.97569 20.7992
305 1 -1.1104 3.82694 2.14279 20.8124
302 1 -1.1104 6.64182 -0.626342 20.8188
392 2 2.2208 13.6643 0.780909 24.8434
358 1 -1.1104 9.60969 -0.599288 23.5146
288 2 2.2208 13.6375 0.770018 19.3637
319 1 -1.1104 0.979726 7.72285 26.5158
337 1 -1.1104 3.79171 7.74869 23.4383
309 2 2.2208 5.16942 0.720333 22.158
310 2 2.2208 5.36487 6.33452 22.1168
311 1 -1.1104 0.977177 -3.58117 23.6589
312 1 -1.1104 1.05942 2.03279 23.4352
317 1 -1.1104 0.92546 -3.392 26.3781
318 1 -1.1104 1.06998 2.26425 26.2974
323 2 2.2208 5.25672 -2.23584 25.064
324 2 2.2208 5.14105 3.48933 25.0095
325 1 -1.1104 1.13589 -0.725315 23.7165
326 1 -1.1104 0.996568 4.87777 23.7519
329 1 -1.1104 1.03287 -0.502379 26.3982
330 1 -1.1104 0.718052 4.95939 26.4056
333 2 2.2208 2.45815 0.707575 25.0872
334 2 2.2208 2.39321 6.26939 24.918
335 1 -1.1104 3.80069 -3.59404 23.7759
336 1 -1.1104 3.9325 2.09809 23.5044
338 1 -1.1104 3.95777 -3.45644 26.6698
339 1 -1.1104 3.72079 2.12158 26.5119
341 2 2.2208 2.292 -1.9986 22.1865
342 2 2.2208 2.48231 3.53837 22.1523
343 1 -1.1104 3.81043 -0.674728 23.6066
344 1 -1.1104 3.75478 4.95131 23.4787
345 1 -1.1104 3.68064 -0.822534 26.535
346 1 -1.1104 3.68438 5.00286 26.2614
313 1 -1.1104 1.11639 7.70475 23.5982
340 1 -1.1104 3.68969 7.76075 26.3456
315 1 -1.1104 6.85995 2.20088 23.6464
362 1 -1.1104 12.3371 2.03415 26.4315
321 1 -1.1104 6.53306 2.25897 26.3278
314 1 -1.1104 6.69799 -3.33863 23.5772
378 1 -1.1104 12.1884 7.86948 23.4495
366 1 -1.1104 12.2121 -3.45294 23.5032
303 1 -1.1104 6.87534 4.9722 20.853
386 1 -1.1104 9.38553 -3.42625 26.3789
354 1 -1.1104 9.4267 4.6514 26.4568
383 1 -1.1104 9.68361 -0.715519 20.7529
370 1 -1.1104 12.2252 1.94717 20.7879
374 1 -1.1104 12.3618 -0.884435 20.7801
381 1 -1.1104 9.34199 2.04414 20.6821
355 1 -1.1104 9.318 -0.619461 26.4233
316 1 -1.1104 6.53219 7.8457 23.6519
331 1 -1.1104 6.42989 -0.671817 26.34
359 2 2.2208 7.99084 3.42567 22.2567
368 1 -1.1104 12.1812 -0.520388 26.2231
376 1 -1.1104 12.2892 5.12265 23.4017
299 1 -1.1104 6.68494 7.66075 20.7548
388 2 2.2208 10.7647 3.52708 25.0319
357 2 2.2208 7.83546 6.24485 25.0083
363 1 -1.1104 12.3354 2.18128 23.5928
384 1 -1.1104 9.50946 4.99912 20.7785
382 1 -1.1104 9.48521 7.93667 20.8063
332 1 -1.1104 6.63803 4.88359 26.3181
322 1 -1.1104 6.55415 7.83021 26.5343
328 1 -1.1104 6.45243 4.93581 23.7783
327 1 -1.1104 6.59977 -0.593106 23.5851
320 1 -1.1104 6.6235 -3.48951 26.5361
372 1 -1.1104 12.234 -3.51812 26.4248
373 2 2.2208 10.8997 0.619084 22.1494
364 2 2.2208 7.9925 0.673554 25.0978
379 1 -1.1104 12.2551 7.6375 26.4196
356 1 -1.1104 9.39138 4.81044 23.6103
350 2 2.2208 -0.473164 0.543564 22.1751
202 2 2.2208 10.9213 3.52089 13.6775
256 2 2.2208 -0.403134 0.67103 16.3788
253 2 2.2208 -0.373423 3.5075 19.3627
200 2 2.2208 10.8393 -2.02627 13.648
252 2 2.2208 2.54196 -4.91745 13.6896
107 2 2.2208 8.04149 3.51411 27.7678
166 2 2.2208 -0.390631 3.44492 13.6805
160 2 2.2208 5.31334 3.62522 13.8524
398 2 2.2208 5.22804 11.9153 5.47923
399 2 2.2208 5.36196 17.6168 5.38634
400 1 -1.1104 1.07697 13.4583 1.06798
402 1 -1.1104 1.13887 18.9463 1.04016
406 1 -1.1104 1.12172 13.4109 3.9144
407 1 -1.1104 1.15877 19.0124 3.85544
410 2 2.2208 5.11697 9.2724 2.30921
411 2 2.2208 5.36966 14.731 2.55691
412 2 2.2208 5.54353 20.2941 2.5361
413 1 -1.1104 0.970823 10.6571 1.17851
415 1 -1.1104 1.26465 16.1964 1.0701
421 1 -1.1104 1.13251 10.6399 3.89332
422 1 -1.1104 1.07326 16.252 3.88597
425 2 2.2208 2.42178 12.0772 2.59683
426 2 2.2208 2.67969 17.4866 2.45783
427 1 -1.1104 3.73067 13.3324 1.09539
429 1 -1.1104 4.024 18.7573 0.987611
430 1 -1.1104 4.02409 13.314 3.96366
431 1 -1.1104 3.9636 18.9586 3.8807
432 2 2.2208 2.59451 9.11649 5.15706
433 2 2.2208 2.64571 14.8497 5.3943
434 2 2.2208 2.66748 20.3174 5.34257
435 1 -1.1104 3.62607 10.4652 0.976265
437 1 -1.1104 3.95474 16.0371 1.10252
439 1 -1.1104 4.09472 10.7384 3.83183
440 1 -1.1104 3.91903 16.275 4.1171
449 2 2.2208 -0.491923 17.4932 5.23352
438 1 -1.1104 3.87725 16.0329 6.8163
447 2 2.2208 -0.303288 14.8523 2.4765
405 1 -1.1104 6.85938 19.0118 0.98018
498 1 -1.1104 4.12037 18.9033 6.92065
419 1 -1.1104 6.66228 16.2548 1.14313
416 1 -1.1104 0.996118 16.1713 6.56907
401 1 -1.1104 1.34344 13.3544 6.84576
428 1 -1.1104 4.09103 13.183 6.99477
496 1 -1.1104 1.24123 18.9246 6.7255
584 2 2.2208 13.8929 11.9345 8.06721
446 2 2.2208 -0.261565 20.3886 2.35612
542 2 2.2208 -0.337324 17.6907 10.9844
573 1 -1.1104 12.4562 19.0797 12.2525
535 2 2.2208 5.32929 9.10604 13.7197
548 1 -1.1104 9.61056 16.0861 12.4382
403 1 -1.1104 6.65525 13.3036 0.942002
408 1 -1.1104 6.74938 13.5421 3.95676
563 1 -1.1104 12.4991 18.9662 9.55574
540 2 2.2208 -0.193354 9.1714 8.01789
409 1 -1.1104 6.61855 18.9429 3.83772
424 1 -1.1104 6.84994 16.2408 3.97465
417 1 -1.1104 6.62948 10.6108 1.08846
423 1 -1.1104 6.73031 10.6243 3.96899
453 2 2.2208 10.915 11.8812 5.08767
454 2 2.2208 10.7814 17.5735 5.27978
455 1 -1.1104 12.2781 13.2956 1.04674
457 1 -1.1104 12.393 18.848 1.00813
458 1 -1.1104 12.4396 13.341 3.95213
459 1 -1.1104 12.2561 18.8767 3.8393
460 2 2.2208 10.6871 9.28133 2.37785
461 2 2.2208 10.8271 14.7227 2.52032
462 2 2.2208 10.8889 20.4086 2.46037
463 1 -1.1104 12.2808 10.5659 0.93708
465 1 -1.1104 12.2729 16.1467 0.958314
467 1 -1.1104 12.2686 10.7665 3.61168
468 1 -1.1104 12.3432 16.0428 3.86277
469 2 2.2208 7.89471 12.0738 2.37852
470 2 2.2208 8.11799 17.7117 2.50081
471 1 -1.1104 9.36019 13.2382 1.02843
473 1 -1.1104 9.73361 18.9539 1.04068
474 1 -1.1104 9.44765 13.3479 3.80366
475 1 -1.1104 9.45339 19.1705 3.76335
476 2 2.2208 8.07799 9.18778 5.21956
477 2 2.2208 8.10546 14.7201 5.33754
478 2 2.2208 8.08497 20.4118 5.23726
479 1 -1.1104 9.48368 10.5062 1.0216
481 1 -1.1104 9.51904 16.0897 1.19664
483 1 -1.1104 9.54465 10.6299 3.80854
484 1 -1.1104 9.48087 16.1407 4.02805
482 1 -1.1104 9.68155 16.0028 6.82964
480 1 -1.1104 9.5419 10.404 6.53116
420 1 -1.1104 6.79423 16.2821 6.80921
456 1 -1.1104 12.5306 13.4337 6.90459
547 1 -1.1104 9.7922 10.5456 9.49813
578 2 2.2208 11.0738 9.20888 13.6694
554 2 2.2208 8.08434 8.98665 10.8045
579 2 2.2208 8.02763 11.7972 13.6535
585 2 2.2208 11.0918 20.3393 13.8142
418 1 -1.1104 6.62092 10.4994 6.68808
404 1 -1.1104 6.74831 13.431 6.78316
414 1 -1.1104 1.2831 10.6292 6.59929
436 1 -1.1104 3.82774 10.5696 6.63177
572 1 -1.1104 12.4255 13.4202 12.354
543 2 2.2208 -0.309547 11.9207 10.7836
499 2 2.2208 5.45522 11.8408 10.8727
500 2 2.2208 5.36588 17.4828 11.0255
501 1 -1.1104 1.08903 13.3222 12.223
502 1 -1.1104 1.1193 18.9739 12.2403
505 1 -1.1104 1.24802 13.4462 9.40112
506 1 -1.1104 1.09292 18.8375 9.41638
509 2 2.2208 5.48539 9.03462 7.91074
510 2 2.2208 5.36037 14.7627 8.33826
511 2 2.2208 5.42725 20.4641 8.22536
512 1 -1.1104 0.944319 10.4183 12.2386
513 1 -1.1104 1.0859 16.2121 12.4378
516 1 -1.1104 1.13526 10.6671 9.59488
517 1 -1.1104 0.957929 16.2666 9.4701
520 2 2.2208 2.52839 11.8272 8.04574
521 2 2.2208 2.42066 17.6025 8.19867
522 1 -1.1104 4.10727 13.2322 12.3901
523 1 -1.1104 3.92224 18.75 12.563
524 1 -1.1104 3.88314 13.2673 9.68942
525 1 -1.1104 3.8537 18.9593 9.59715
526 2 2.2208 2.51337 9.02886 10.9252
527 2 2.2208 2.36789 14.7551 10.8591
528 2 2.2208 2.47407 20.3234 11.0376
529 1 -1.1104 3.99268 10.4889 12.4474
530 1 -1.1104 3.87333 15.9942 12.3067
531 1 -1.1104 4.11712 10.405 9.6019
532 1 -1.1104 3.83684 16.1595 9.62084
514 1 -1.1104 6.96123 10.4605 12.1286
508 1 -1.1104 6.68468 18.9972 9.68493
577 2 2.2208 10.9313 14.6736 13.6495
550 2 2.2208 8.19816 12.0216 8.21228
515 1 -1.1104 6.6777 16.1784 12.3163
562 2 2.2208 11.0365 9.22169 7.97907
551 1 -1.1104 12.3903 16.2707 9.68273
504 1 -1.1104 6.80697 19.0712 12.3806
497 1 -1.1104 6.76432 18.9737 6.82395
503 1 -1.1104 6.91889 13.2209 12.2208
566 1 -1.1104 9.6264 13.4687 9.47666
546 1 -1.1104 9.48765 16.1937 9.74703
519 1 -1.1104 6.7062 16.2325 9.58253
558 2 2.2208 11.0498 20.3798 8.1057
570 2 2.2208 11.0196 11.9183 10.8781
561 1 -1.1104 9.56228 18.8406 6.49836
466 1 -1.1104 12.3599 16.2216 6.70114
472 1 -1.1104 9.68822 13.2172 6.58296
464 1 -1.1104 12.3711 10.6285 6.63513
560 1 -1.1104 12.3687 19.0516 6.67982
555 1 -1.1104 12.4905 10.615 9.35514
557 1 -1.1104 12.3275 10.5832 12.3113
559 2 2.2208 11.1155 14.8561 8.32316
518 1 -1.1104 6.96424 10.5676 9.23638
507 1 -1.1104 6.82531 13.2364 9.54602
567 1 -1.1104 9.53021 19.109 12.3693
549 1 -1.1104 9.6656 10.572 12.3052
564 1 -1.1104 12.5552 13.4061 9.70145
569 2 2.2208 8.16843 17.5162 8.13997
568 1 -1.1104 9.60629 13.3227 12.2127
571 2 2.2208 10.8425 17.7715 11.0197
553 2 2.2208 8.179 14.7375 11.0476
556 1 -1.1104 12.4092 16.3803 12.3474
552 2 2.2208 8.04555 20.2972 10.844
565 1 -1.1104 9.49297 19.1274 9.46814
534 2 2.2208 5.3446 14.7296 13.6811
538 2 2.2208 -0.206448 14.7217 8.07987
536 2 2.2208 2.3646 11.7656 13.6797
576 2 2.2208 8.14178 17.6511 13.8445
533 2 2.2208 2.53852 17.4318 13.8718
494 2 2.2208 13.6001 14.73 -0.445998
541 2 2.2208 -0.21858 14.8512 13.8093
444 2 2.2208 5.30135 17.575 -0.466296
443 2 2.2208 2.33999 9.04289 -0.353086
488 2 2.2208 10.8884 17.4734 -0.389013
489 2 2.2208 10.9563 11.9717 -0.307759
586 2 2.2208 5.35784 11.9427 16.5363
587 2 2.2208 5.38823 17.608 16.7344
588 1 -1.1104 1.03947 13.4054 18.0474
589 1 -1.1104 1.12465 19.038 17.903
592 1 -1.1104 1.28152 13.3484 15.2277
593 1 -1.1104 1.25306 18.8467 15.1314
596 2 2.2208 5.2983 9.11037 19.3705
597 2 2.2208 5.38132 14.6868 19.3093
598 2 2.2208 5.39525 20.4135 19.4228
599 1 -1.1104 1.09949 10.621 17.8677
600 1 -1.1104 0.93149 16.0837 17.9036
603 1 -1.1104 0.997206 10.5124 14.9977
604 1 -1.1104 1.02374 15.9623 15.0969
607 2 2.2208 2.52604 12.0447 19.3284
608 2 2.2208 2.59911 17.6156 19.3508
609 1 -1.1104 3.76533 13.4737 17.9033
610 1 -1.1104 4.03322 18.8754 18.3281
611 1 -1.1104 3.96775 13.3132 15.22
612 1 -1.1104 3.81894 18.9057 15.3757
613 2 2.2208 2.62667 9.30869 16.39
614 2 2.2208 2.4041 14.7554 16.6188
615 2 2.2208 2.68042 20.4741 16.5213
616 1 -1.1104 3.75541 10.556 18.0181
617 1 -1.1104 3.76136 16.3223 17.7647
618 1 -1.1104 3.97421 10.5583 15.1277
619 1 -1.1104 3.98088 16.0394 15.1213
706 2 2.2208 -0.320639 9.15051 24.993
669 1 -1.1104 3.988 16.2071 20.6408
451 2 2.2208 -0.275406 11.9863 27.7325
445 2 2.2208 5.12999 11.8002 27.9975
622 2 2.2208 -0.160381 14.7516 19.3983
591 1 -1.1104 6.70914 19.0774 17.9504
661 1 -1.1104 6.98693 19.034 20.6054
658 1 -1.1104 1.07316 13.3053 20.814
704 2 2.2208 -0.330608 20.3686 24.9686
723 1 -1.1104 12.3087 13.2097 26.271
590 1 -1.1104 6.82364 13.3836 17.8489
602 1 -1.1104 6.70324 16.1527 18.0122
665 1 -1.1104 6.70298 16.1866 20.7574
601 1 -1.1104 6.53474 10.6605 18.0536
606 1 -1.1104 6.84931 16.0737 15.2008
595 1 -1.1104 6.50669 19.0672 15.2931
594 1 -1.1104 6.79533 13.1743 15.0179
605 1 -1.1104 6.57157 10.3932 15.3264
625 2 2.2208 11.0346 11.8922 16.6129
626 2 2.2208 11.0797 17.5044 16.5357
627 1 -1.1104 12.3523 13.371 17.9378
628 1 -1.1104 12.7248 19.0289 18.0208
629 1 -1.1104 12.2564 13.4923 15.1116
630 1 -1.1104 12.337 19.0633 15.1883
632 2 2.2208 10.9057 8.99774 19.3725
633 2 2.2208 10.982 14.7467 19.3414
634 2 2.2208 11.007 20.3673 19.3038
635 1 -1.1104 12.1932 10.4409 18.0377
636 1 -1.1104 12.3515 16.1267 17.7665
637 1 -1.1104 12.4297 10.6068 15.2669
638 1 -1.1104 12.5979 16.2862 15.2124
639 2 2.2208 8.08805 11.9593 19.38
640 2 2.2208 8.2059 17.621 19.5401
641 1 -1.1104 9.56415 13.1105 18.0102
642 1 -1.1104 9.61651 18.9928 17.9923
643 1 -1.1104 9.6024 13.4158 15.2403
644 1 -1.1104 9.37159 18.9403 15.167
646 2 2.2208 8.11392 9.19247 16.5536
647 2 2.2208 8.19003 14.754 16.5457
648 2 2.2208 8.11753 20.3562 16.549
649 1 -1.1104 9.55674 10.5288 17.9278
650 1 -1.1104 9.67571 16.2032 18.1781
651 1 -1.1104 9.56603 10.5387 15.1483
652 1 -1.1104 9.72153 16.1802 15.1154
712 1 -1.1104 9.4206 10.469 23.7029
730 1 -1.1104 9.54658 13.2361 20.6791
731 1 -1.1104 9.16302 10.5215 20.7928
722 1 -1.1104 12.3576 13.4448 20.687
727 1 -1.1104 12.4033 16.2595 20.5745
740 1 -1.1104 12.1276 13.3982 23.413
726 1 -1.1104 12.0821 10.4572 20.6517
645 1 -1.1104 9.60225 19.1221 20.7315
623 2 2.2208 -0.41098 12.0954 16.7065
707 2 2.2208 -0.393698 17.7583 22.1507
621 2 2.2208 -0.294751 20.5056 19.449
713 2 2.2208 8.196 20.4238 22.29
666 1 -1.1104 3.77376 13.4112 20.6527
667 1 -1.1104 4.07109 19.0587 20.8251
487 2 2.2208 7.9824 9.16337 27.5798
716 1 -1.1104 9.69214 18.9733 26.3569
745 2 2.2208 13.8192 20.4564 21.9843
668 1 -1.1104 3.78647 10.706 20.9798
663 1 -1.1104 1.28177 16.3902 20.7195
662 1 -1.1104 1.07174 10.4861 20.8207
620 2 2.2208 -0.188123 17.594 16.5855
733 1 -1.1104 9.48738 13.4309 26.3645
659 1 -1.1104 1.24806 19.1234 20.7359
670 2 2.2208 5.18058 12.0563 22.202
671 2 2.2208 5.40133 17.6154 22.0136
672 1 -1.1104 0.95361 13.3203 23.6298
673 1 -1.1104 1.10428 18.977 23.5712
676 1 -1.1104 1.05068 13.4534 26.4159
677 1 -1.1104 1.01705 19.1617 26.381
680 2 2.2208 5.14518 9.23269 24.9511
681 2 2.2208 5.32647 14.9162 24.9742
682 2 2.2208 5.3171 20.3161 24.9279
683 1 -1.1104 1.01057 10.4643 23.5595
684 1 -1.1104 1.06113 16.1129 23.4698
687 1 -1.1104 1.10246 10.5983 26.2934
688 1 -1.1104 1.12943 16.1805 26.322
691 2 2.2208 2.46783 12.0423 25.121
692 2 2.2208 2.60192 17.5922 24.8422
693 1 -1.1104 3.98514 13.3277 23.4409
694 1 -1.1104 3.89592 19.1195 23.5642
695 1 -1.1104 3.74525 13.5599 26.1394
696 1 -1.1104 4.11237 18.846 26.257
697 2 2.2208 2.46426 9.17231 22.1311
698 2 2.2208 2.50498 14.7282 22.0557
699 2 2.2208 2.50774 20.4868 22.1966
700 1 -1.1104 3.71035 10.6656 23.8289
701 1 -1.1104 3.86814 16.3615 23.3509
702 1 -1.1104 3.90415 10.5361 26.5398
703 1 -1.1104 3.99199 16.184 26.2938
719 1 -1.1104 12.3959 15.9877 26.2121
690 1 -1.1104 6.75222 16.0931 26.3098
717 2 2.2208 10.7714 9.0437 24.8255
686 1 -1.1104 6.59794 16.2646 23.6399
678 1 -1.1104 6.39229 13.3756 26.3198
685 1 -1.1104 6.56956 10.6822 23.8008
728 1 -1.1104 12.459 19.1466 23.6368
737 2 2.2208 7.91433 11.9405 25.1182
718 2 2.2208 11.0405 20.4267 24.9797
736 2 2.2208 8.15776 17.6463 24.895
664 1 -1.1104 6.41044 10.4554 20.8958
732 1 -1.1104 9.50794 16.1105 20.8739
631 1 -1.1104 12.3932 19.0184 20.742
660 1 -1.1104 6.63589 13.3974 20.815
739 2 2.2208 10.9984 17.5356 22.0365
738 2 2.2208 10.8204 11.8903 22.0695
689 1 -1.1104 6.64399 10.7274 26.7253
709 1 -1.1104 9.63023 16.1309 26.1871
710 1 -1.1104 9.43201 10.4803 26.3959
675 1 -1.1104 6.73646 18.8697 23.4667
725 1 -1.1104 12.4914 16.0101 23.4146
720 1 -1.1104 12.4716 18.8977 26.3365
729 1 -1.1104 12.3073 10.7007 23.3473
715 2 2.2208 7.87459 9.11895 22.1837
714 2 2.2208 8.11774 14.8313 22.2697
734 1 -1.1104 9.64285 18.9762 23.5037
674 1 -1.1104 6.65976 13.5214 23.6136
679 1 -1.1104 6.93557 18.9244 26.1381
721 1 -1.1104 12.161 10.4716 26.2738
735 1 -1.1104 9.46534 13.2468 23.4904
711 1 -1.1104 9.42841 16.1672 23.3573
724 2 2.2208 10.9793 14.5962 24.9415
442 2 2.2208 2.41365 14.7796 27.6166
493 2 2.2208 13.667 9.13829 27.8501
441 2 2.2208 2.69521 20.4286 27.7129
486 2 2.2208 8.05455 14.7207 27.7446
539 2 2.2208 -0.343835 9.16572 13.6833
544 2 2.2208 5.23748 20.2956 13.7935
485 2 2.2208 8.29577 20.4094 27.7506
545 2 2.2208 -0.19147 20.4504 13.7603
746 2 2.2208 5.30094 23.1179 5.42209
748 2 2.2208 5.37062 28.9071 5.16635
749 1 -1.1104 1.22002 24.5686 0.963712
750 1 -1.1104 1.14945 30.4683 1.17944
753 1 -1.1104 1.05037 24.6124 3.94381
754 1 -1.1104 1.22594 30.1407 3.89457
757 2 2.2208 5.42421 26.0928 2.51556
758 2 2.2208 5.29829 31.8169 2.5699
759 1 -1.1104 1.16708 21.816 1.14176
760 1 -1.1104 1.17326 27.4629 0.96954
761 1 -1.1104 1.03006 33.2588 1.12686
765 1 -1.1104 1.12658 21.682 4.05486
766 1 -1.1104 1.08433 27.3595 3.75536
767 1 -1.1104 1.07524 33.1397 3.84097
771 2 2.2208 2.46528 23.2871 2.44318
772 2 2.2208 2.62795 29.0028 2.27878
773 1 -1.1104 3.68812 24.8142 1.24483
774 1 -1.1104 4.09718 30.4246 0.936052
775 1 -1.1104 3.74361 24.4398 3.94002
776 1 -1.1104 4.08363 30.3327 3.82155
778 2 2.2208 2.34541 25.9726 5.29948
779 2 2.2208 2.58844 31.6419 5.47026
780 1 -1.1104 3.90213 21.8262 0.905119
781 1 -1.1104 3.921 27.7156 0.965248
782 1 -1.1104 3.91708 33.1752 1.01396
783 1 -1.1104 3.83603 21.5458 3.73548
784 1 -1.1104 3.97827 27.4871 3.70149
785 1 -1.1104 3.9144 33.1739 4.0812
828 1 -1.1104 1.2059 24.6333 6.81551
915 1 -1.1104 12.5235 30.2796 9.48658
786 2 2.2208 -0.333758 26.1781 2.27738
883 2 2.2208 -0.260871 31.8638 8.16291
829 1 -1.1104 1.05973 30.5354 6.68858
756 1 -1.1104 6.84912 30.3446 3.78548
762 1 -1.1104 6.68422 21.8451 0.901003
843 2 2.2208 -0.363006 28.9813 10.8724
832 1 -1.1104 1.12294 21.8602 6.84873
834 1 -1.1104 1.23432 33.4222 6.57832
790 2 2.2208 -0.157165 31.7699 2.61852
884 2 2.2208 -0.163325 26.1061 8.05624
789 2 2.2208 -0.401259 28.9715 5.23768
882 2 2.2208 -0.317107 23.3 10.8911
764 1 -1.1104 6.78697 33.0739 1.00856
755 1 -1.1104 6.68659 24.5939 3.84135
837 1 -1.1104 6.5764 33.174 6.7896
751 1 -1.1104 6.62906 24.6573 0.870391
752 1 -1.1104 6.72403 30.2412 0.962807
769 1 -1.1104 6.77502 27.5548 3.81031
768 1 -1.1104 6.62492 21.8395 3.82335
770 1 -1.1104 6.75656 33.0913 3.88092
763 1 -1.1104 6.77583 27.2646 1.07106
793 2 2.2208 10.8794 23.1095 5.19705
794 2 2.2208 10.8286 28.9404 5.33439
795 1 -1.1104 12.4728 24.6628 1.2073
796 1 -1.1104 12.3984 30.2909 1.17414
797 1 -1.1104 12.2537 24.4856 3.83636
798 1 -1.1104 12.3988 30.1827 4.03229
799 2 2.2208 10.9487 26.1765 2.60281
800 2 2.2208 11.0614 31.7137 2.6901
801 1 -1.1104 12.4019 21.7628 1.10085
802 1 -1.1104 12.4013 27.4546 1.27269
803 1 -1.1104 12.4336 33.079 1.14517
804 1 -1.1104 12.1033 21.6119 3.97733
805 1 -1.1104 12.2075 27.6235 4.0032
806 1 -1.1104 12.4338 33.0829 3.90587
807 2 2.2208 8.02323 23.253 2.41778
808 2 2.2208 8.15856 28.9142 2.44447
809 1 -1.1104 9.58428 24.4395 1.11258
810 1 -1.1104 9.48608 30.2895 1.102
811 1 -1.1104 9.56255 24.6247 3.82272
812 1 -1.1104 9.60362 30.3335 3.97239
814 2 2.2208 8.18494 26.0306 5.25011
815 2 2.2208 7.98394 31.6512 5.281
816 1 -1.1104 9.70345 21.7859 0.998708
817 1 -1.1104 9.55068 27.6648 1.27001
818 1 -1.1104 9.58946 33.2252 1.28424
819 1 -1.1104 9.35453 21.7818 3.85528
820 1 -1.1104 9.5039 27.4779 3.9245
821 1 -1.1104 9.76635 33.0503 3.98652
899 1 -1.1104 12.2884 33.0822 6.75865
835 1 -1.1104 6.81748 21.7578 6.72954
896 1 -1.1104 12.174 30.1958 6.78644
900 1 -1.1104 9.60459 24.5958 6.73942
895 1 -1.1104 12.3021 24.6222 6.7004
831 1 -1.1104 6.46242 30.4161 6.86109
904 1 -1.1104 9.52507 27.5524 6.96381
897 1 -1.1104 12.2501 21.7214 6.76095
898 1 -1.1104 12.408 27.281 6.68762
905 1 -1.1104 9.34112 32.982 6.76828
924 2 2.2208 8.26027 23.3283 8.21405
892 1 -1.1104 9.7422 21.8078 12.3999
910 2 2.2208 10.9109 23.2793 10.9853
787 2 2.2208 -0.146738 23.1159 5.22584
909 1 -1.1104 9.45928 24.761 9.62387
833 1 -1.1104 1.1461 27.5483 6.61457
838 1 -1.1104 3.93621 24.3381 6.72494
842 1 -1.1104 3.83219 33.0735 6.82344
830 1 -1.1104 6.85974 24.7068 6.83669
840 1 -1.1104 4.01406 21.5273 6.72327
920 1 -1.1104 12.2732 33.1847 12.3244
841 1 -1.1104 3.99157 27.3853 6.55863
839 1 -1.1104 3.89147 30.0704 6.70291
844 2 2.2208 5.26256 23.3522 10.9535
845 2 2.2208 5.268 29.102 10.9339
846 1 -1.1104 1.11111 24.6665 12.312
847 1 -1.1104 1.13346 30.2571 12.3147
850 1 -1.1104 1.07775 24.5951 9.52243
851 1 -1.1104 1.12973 30.2109 9.50854
854 2 2.2208 5.30303 26.1302 7.97569
855 2 2.2208 5.33539 31.6258 8.18332
856 1 -1.1104 1.0964 21.8568 12.4596
857 1 -1.1104 1.14108 27.4934 12.239
858 1 -1.1104 0.896414 33.121 12.5072
862 1 -1.1104 1.14024 21.7232 9.6801