ITEM: TIMESTEP
60000
ITEM: NUMBER OF ATOMS
18000
ITEM: BOX BOUNDS pp pp pp
-3.9596259155794233e-01 2.7735962591557922e+01
-4.8450646287936969e+00 3.3292506462880647e+02
-3.9464395517545908e-01 2.7734643955176285e+01
ITEM: ATOMS id type q x y z
1 2 2.2208 5.18722 0.905031 5.27725
2 2 2.2208 5.20965 6.36918 5.14139
3 1 -1.1104 1.06897 -3.43643 0.960628
5 1 -1.1104 0.966426 2.18061 0.939613
15 1 -1.1104 0.720357 -3.36788 3.85832
16 1 -1.1104 0.958622 2.32032 3.58436
21 2 2.2208 5.13716 -1.90113 2.49447
22 2 2.2208 5.1025 3.53629 2.25208
23 1 -1.1104 0.894352 -0.736127 0.733421
25 1 -1.1104 0.852877 5.14571 0.955421
31 1 -1.1104 0.924238 -0.443682 3.68367
32 1 -1.1104 1.03971 5.05448 3.86203
35 2 2.2208 2.20512 0.621566 2.28155
36 2 2.2208 2.41334 6.36687 2.40454
37 1 -1.1104 4.03635 -3.41555 0.965245
39 1 -1.1104 3.81477 2.23605 0.791426
43 1 -1.1104 3.55678 -3.5816 3.89943
44 1 -1.1104 3.76217 2.09703 3.6417
46 2 2.2208 2.35028 -1.9459 5.14115
47 2 2.2208 2.29785 3.57752 5.11813
48 1 -1.1104 3.68718 -0.690725 1.03956
50 1 -1.1104 3.75804 5.0553 0.896065
52 1 -1.1104 3.70921 -0.692501 3.85846
53 1 -1.1104 3.96494 4.797 3.76107
17 1 -1.1104 1.03206 7.81372 3.79786
208 2 2.2208 13.8258 -2.16955 10.7709
41 1 -1.1104 3.81355 7.92639 1.0871
45 1 -1.1104 3.80689 7.92429 3.74316
18 1 -1.1104 6.45016 -3.45543 3.81913
164 2 2.2208 -0.557555 -2.07695 8.23558
212 2 2.2208 8.05587 -4.85043 8.00502
34 1 -1.1104 6.63759 5.09791 3.90126
13 1 -1.1104 6.51906 7.76311 1.18626
38 1 -1.1104 3.71446 -3.22513 6.84376
9 1 -1.1104 6.80135 -3.39636 0.974935
20 1 -1.1104 6.52608 7.89043 3.90787
11 1 -1.1104 6.79281 2.11223 0.86462
201 2 2.2208 7.99473 0.939705 13.6655
27 1 -1.1104 6.5789 -0.545429 1.27803
33 1 -1.1104 6.52127 -0.586187 4.10732
60 2 2.2208 -0.507838 -2.11944 2.38407
10 1 -1.1104 6.5181 -3.3566 6.72183
51 1 -1.1104 3.91633 5.08261 6.50726
4 1 -1.1104 0.836875 -3.51074 6.71525
57 2 2.2208 5.27164 0.888667 -0.605262
55 2 2.2208 2.42236 -2.17596 -0.569126
118 2 2.2208 7.86993 -4.85996 2.35324
7 1 -1.1104 0.96233 7.76049 0.83826
114 2 2.2208 13.8154 3.46083 5.29602
83 1 -1.1104 12.2359 -0.82815 6.49745
19 1 -1.1104 6.63032 2.1741 3.69489
29 1 -1.1104 6.55642 4.94934 1.11756
79 1 -1.1104 12.2255 7.77171 3.83977
69 2 2.2208 10.9101 0.753641 5.20039
70 2 2.2208 10.8668 6.2548 5.32391
71 1 -1.1104 12.3716 -3.57673 0.849544
73 1 -1.1104 12.3321 2.31911 1.03566
75 1 -1.1104 12.3495 7.59398 1.04964
77 1 -1.1104 12.2833 -3.45325 3.74608
78 1 -1.1104 12.2934 2.27987 3.9443
80 2 2.2208 10.8977 -2.19274 2.42594
81 2 2.2208 10.8845 3.52743 2.53482
82 1 -1.1104 12.1302 -0.651229 1.35703
84 1 -1.1104 12.1344 5.02277 1.16535
86 1 -1.1104 12.3137 -0.496891 3.96344
87 1 -1.1104 12.3546 4.97516 3.80315
88 2 2.2208 8.08313 0.645772 2.52142
89 2 2.2208 7.9808 6.35948 2.57013
90 1 -1.1104 9.48417 -3.71081 0.77754
92 1 -1.1104 9.43567 2.0896 1.08408
96 1 -1.1104 9.45588 -3.68791 3.72422
97 1 -1.1104 9.52655 2.03458 3.99318
99 2 2.2208 8.03728 -2.1277 5.21226
100 2 2.2208 8.10715 3.58576 5.27377
101 1 -1.1104 9.38294 -0.963016 1.05611
103 1 -1.1104 9.26734 4.89759 1.14116
105 1 -1.1104 9.30055 -0.790144 3.74869
106 1 -1.1104 9.59749 4.7481 3.88056
98 1 -1.1104 9.3739 7.56303 3.85751
94 1 -1.1104 9.29375 7.72314 1.22843
163 2 2.2208 -0.364988 3.64866 8.05951
191 2 2.2208 11.0537 3.42485 8.23794
95 1 -1.1104 9.46986 7.85032 6.83789
113 2 2.2208 13.7139 -2.1551 5.14817
162 2 2.2208 2.43969 6.50269 13.6489
28 1 -1.1104 6.79628 -0.797458 6.81737
102 1 -1.1104 9.37788 -0.482043 6.53322
178 2 2.2208 8.16989 0.766357 7.94158
26 1 -1.1104 1.16289 4.93315 6.73374
14 1 -1.1104 6.57576 7.80643 6.59344
42 1 -1.1104 3.77201 7.94138 6.51043
8 1 -1.1104 1.14339 7.73746 6.67914
24 1 -1.1104 1.1126 -0.521419 6.65316
49 1 -1.1104 3.99637 -0.411408 6.76575
40 1 -1.1104 3.6629 2.20109 6.5077
6 1 -1.1104 0.864476 2.27979 6.54398
150 1 -1.1104 3.86857 7.75153 12.1562
126 1 -1.1104 1.05969 7.85742 12.226
121 1 -1.1104 3.96804 4.98992 9.19133
122 2 2.2208 5.28525 0.702846 10.6126
123 2 2.2208 5.35253 6.58094 10.7281
124 1 -1.1104 0.840894 -3.33614 12.2662
125 1 -1.1104 1.23497 2.2011 12.313
130 1 -1.1104 1.01377 -3.34869 9.68939
131 1 -1.1104 0.997986 2.0684 9.49448
136 2 2.2208 5.20334 -2.07274 8.06252
137 2 2.2208 5.33333 3.71074 7.82205
138 1 -1.1104 1.10824 -0.6913 12.2018
139 1 -1.1104 0.981119 5.07233 12.2276
142 1 -1.1104 0.869786 -0.796977 9.32363
143 1 -1.1104 1.12717 4.98926 9.56564
146 2 2.2208 2.39766 0.746208 8.06499
147 2 2.2208 2.40752 6.35761 8.02958
148 1 -1.1104 3.64422 -3.52747 12.2075
149 1 -1.1104 4.04756 2.17843 12.1256
151 1 -1.1104 3.78797 -3.45842 9.51676
152 1 -1.1104 3.80857 2.08972 9.35517
153 1 -1.1104 3.8035 7.84325 9.34463
154 2 2.2208 2.33381 -1.97586 10.805
155 2 2.2208 2.64991 3.64684 10.6918
156 1 -1.1104 3.91831 -0.739063 12.0948
157 1 -1.1104 4.01575 4.9456 11.9435
158 1 -1.1104 3.80712 -0.519354 9.44407
132 1 -1.1104 0.974334 7.72527 9.37632
12 1 -1.1104 6.62327 2.1777 6.52164
134 1 -1.1104 6.64515 2.13806 9.17591
133 1 -1.1104 6.53963 -3.32388 9.43579
140 1 -1.1104 6.5048 -0.620563 12.3351
128 1 -1.1104 6.65752 2.21092 12.0262
144 1 -1.1104 6.9564 -0.738902 9.3554
145 1 -1.1104 6.65386 5.22875 9.40949
30 1 -1.1104 6.72769 5.00749 6.64739
127 1 -1.1104 6.63398 -3.40775 12.2074
169 2 2.2208 5.17101 -4.86425 10.8795
104 1 -1.1104 9.38247 5.0234 6.6963
174 1 -1.1104 9.42859 5.05245 12.3745
193 1 -1.1104 9.44218 -3.48479 9.37228
175 1 -1.1104 9.30071 -0.546587 12.2991
183 1 -1.1104 9.70358 2.15834 9.54092
187 1 -1.1104 12.2353 4.99736 12.5267
192 1 -1.1104 12.4474 2.02515 9.44171
180 1 -1.1104 12.4629 -3.52647 9.26827
129 1 -1.1104 6.5791 7.99656 12.1236
141 1 -1.1104 6.67793 5.17305 12.0621
135 1 -1.1104 6.48308 8.04063 9.42404
184 1 -1.1104 12.4492 -0.698595 9.47904
194 1 -1.1104 9.31056 7.80442 12.3634
189 2 2.2208 10.8455 6.45007 10.9164
76 1 -1.1104 12.319 7.72131 6.7429
179 1 -1.1104 12.1977 4.95093 9.54159
196 2 2.2208 10.8135 -1.94758 8.04115
93 1 -1.1104 9.74437 2.31019 6.60981
74 1 -1.1104 12.4484 2.02075 6.62117
188 1 -1.1104 12.1393 -0.427502 12.4045
72 1 -1.1104 12.1652 -3.51933 6.53471
91 1 -1.1104 9.44381 -3.42486 6.69202
199 1 -1.1104 12.1727 7.75544 9.41812
197 1 -1.1104 9.50741 -3.21472 12.3139
182 1 -1.1104 9.36802 7.80956 9.66724
198 2 2.2208 8.04701 6.4579 7.98732
173 1 -1.1104 9.60536 -0.558775 9.4213
190 2 2.2208 11.0085 0.727265 10.8636
176 2 2.2208 8.07422 3.60726 10.8358
177 2 2.2208 8.06417 -2.03101 10.9213
181 1 -1.1104 12.1483 7.81626 12.0782
85 1 -1.1104 12.3914 4.84821 6.69779
195 1 -1.1104 9.40434 2.25301 12.3256
172 1 -1.1104 9.47535 4.81028 9.47216
186 1 -1.1104 12.2193 -3.28138 12.2437
185 1 -1.1104 12.3316 2.33334 12.3484
209 2 2.2208 13.7106 3.57762 10.9689
166 2 2.2208 -0.544961 3.7113 13.6286
252 2 2.2208 2.38 -4.76584 13.879
159 2 2.2208 5.31108 -1.89985 13.6605
116 2 2.2208 13.5848 3.59439 -0.429881
107 2 2.2208 8.00125 3.523 -0.431034
161 2 2.2208 2.4392 0.814323 13.623
110 2 2.2208 10.9575 0.581834 -0.321263
109 2 2.2208 10.7693 6.29351 -0.260808
214 2 2.2208 5.33304 0.767704 16.5155
215 2 2.2208 5.37217 6.26017 16.499
216 1 -1.1104 0.9714 -3.23594 17.8325
217 1 -1.1104 0.952583 2.41586 17.695
222 1 -1.1104 0.982686 -3.38895 15.176
223 1 -1.1104 1.124 2.29735 14.9757
228 2 2.2208 5.27052 -1.94908 19.1622
229 2 2.2208 5.22303 3.6802 19.2762
230 1 -1.1104 1.12918 -0.342741 17.7552
231 1 -1.1104 1.03044 5.17386 17.7157
234 1 -1.1104 1.11916 -0.611936 14.8282
235 1 -1.1104 0.865496 5.16992 14.8604
238 2 2.2208 2.47621 0.839336 19.2333
239 2 2.2208 2.34761 6.3375 19.2771
240 1 -1.1104 3.74834 -3.45777 17.7134
241 1 -1.1104 3.91836 2.27122 18.0757
242 1 -1.1104 3.89975 7.64647 17.9887
243 1 -1.1104 3.82744 -3.29633 15.0932
244 1 -1.1104 3.89616 2.08618 15.134
246 2 2.2208 2.45022 -1.86477 16.3809
247 2 2.2208 2.47225 3.63956 16.3101
248 1 -1.1104 3.99284 -0.462083 17.8329
249 1 -1.1104 3.8086 5.00791 17.7869
250 1 -1.1104 3.95477 -0.490319 15.0237
251 1 -1.1104 3.61272 5.08452 15.016
245 1 -1.1104 3.69904 7.9538 15.1253
218 1 -1.1104 1.06184 7.81317 17.8131
256 2 2.2208 -0.496848 0.860432 16.455
226 1 -1.1104 6.67942 2.27652 14.8715
237 1 -1.1104 6.52967 4.97318 14.9916
220 1 -1.1104 6.69889 2.26681 17.8127
232 1 -1.1104 6.8026 -0.596456 17.9126
224 1 -1.1104 0.927858 8.03199 14.9528
349 2 2.2208 -0.40548 6.31871 22.0138
233 1 -1.1104 6.71807 5.07463 17.9811
219 1 -1.1104 6.51515 -3.47553 17.8297
56 2 2.2208 5.31469 6.3927 27.7933
160 2 2.2208 5.37438 3.71076 13.4592
9616 2 2.2208 13.845 6.42596 19.1959
395 2 2.2208 13.6867 3.74723 22.0901
236 1 -1.1104 6.69805 -0.604405 15.1463
221 1 -1.1104 6.82638 7.74226 17.9647
227 1 -1.1104 6.78408 7.67425 15.1095
225 1 -1.1104 6.48222 -3.34089 14.9832
202 2 2.2208 10.8615 3.67945 13.7218
260 2 2.2208 10.9977 0.692048 16.4636
261 2 2.2208 10.8254 6.34009 16.5714
262 1 -1.1104 12.2075 -3.46181 17.9098
263 1 -1.1104 12.2869 1.96306 17.8789
265 1 -1.1104 12.1749 -3.4703 15.1709
266 1 -1.1104 12.2889 2.33216 15.1623
268 2 2.2208 10.9394 -2.15023 19.2924
269 2 2.2208 10.8344 3.52324 19.2806
270 1 -1.1104 12.2915 -0.634168 17.8776
271 1 -1.1104 12.1404 4.82631 17.8863
272 1 -1.1104 12.4314 -0.600301 15.0971
273 1 -1.1104 12.3149 5.12284 15.2151
274 2 2.2208 8.04966 0.727435 19.3077
275 2 2.2208 8.09008 6.35019 19.5085
276 1 -1.1104 9.25026 -3.46975 17.8729
277 1 -1.1104 9.4579 2.23022 17.9667
279 1 -1.1104 9.31636 -3.41113 15.1315
280 1 -1.1104 9.7136 2.21738 15.1808
282 2 2.2208 7.97601 -1.93304 16.4872
283 2 2.2208 8.14202 3.62321 16.4264
284 1 -1.1104 9.56106 -0.665471 17.9033
285 1 -1.1104 9.36618 5.01735 17.73
286 1 -1.1104 9.42104 -0.779617 15.0505
287 1 -1.1104 9.44926 4.90792 15.0838
281 1 -1.1104 9.42548 8.0108 15.3146
267 1 -1.1104 12.3758 7.88199 14.9395
278 1 -1.1104 9.54271 7.57227 18.1548
264 1 -1.1104 12.4036 7.70674 17.9843
259 2 2.2208 5.22514 -4.84887 16.4217
393 2 2.2208 13.6413 6.41621 24.7994
289 2 2.2208 13.7136 -2.04046 16.5473
382 1 -1.1104 9.49723 7.7074 20.8493
374 1 -1.1104 12.1893 -0.860741 20.6948
364 2 2.2208 8.09289 0.848752 24.9216
204 2 2.2208 13.6847 6.43953 13.5158
327 1 -1.1104 6.38579 -0.578416 23.6927
353 2 2.2208 2.23914 -4.99143 24.7969
294 1 -1.1104 0.978349 -3.38414 20.6373
296 1 -1.1104 0.894457 7.64217 20.6607
307 1 -1.1104 3.80615 -0.721817 20.5044
304 1 -1.1104 3.6893 -3.43397 20.5715
300 1 -1.1104 0.952126 -0.441841 20.4685
297 1 -1.1104 6.56081 -3.09964 20.7857
301 1 -1.1104 1.06047 4.88351 20.5935
305 1 -1.1104 3.87555 2.22294 20.7699
306 1 -1.1104 3.78371 7.71938 20.8045
308 1 -1.1104 3.79502 4.939 20.5938
295 1 -1.1104 0.94485 2.16991 20.6011
337 1 -1.1104 3.89323 7.73804 23.4984
319 1 -1.1104 1.19051 7.82248 26.0299
309 2 2.2208 5.38964 0.89575 22.0487
310 2 2.2208 5.18174 6.39582 22.0033
311 1 -1.1104 0.927007 -3.5465 23.408
312 1 -1.1104 0.942374 2.23513 23.4731
317 1 -1.1104 1.12567 -3.45201 26.274
318 1 -1.1104 1.01464 2.24417 26.3189
323 2 2.2208 5.00012 -2.00725 24.8103
324 2 2.2208 5.26507 3.55561 24.7693
325 1 -1.1104 1.03186 -0.497138 23.2933
326 1 -1.1104 1.01944 4.98278 23.3818
329 1 -1.1104 0.999283 -0.617389 26.0944
330 1 -1.1104 0.924579 5.10836 26.3339
333 2 2.2208 2.38149 0.878269 24.7952
334 2 2.2208 2.49594 6.24022 24.8626
335 1 -1.1104 3.63241 -3.30215 23.4816
336 1 -1.1104 3.91693 2.24805 23.4128
338 1 -1.1104 3.75415 -3.5643 26.3036
339 1 -1.1104 3.78872 2.13264 26.1114
341 2 2.2208 2.2757 -1.84566 21.8966
342 2 2.2208 2.4284 3.51835 22.0135
343 1 -1.1104 3.78263 -0.46604 23.5227
344 1 -1.1104 3.93419 4.95698 23.3139
345 1 -1.1104 3.86808 -0.734586 26.4195
346 1 -1.1104 3.6887 4.74213 26.139
313 1 -1.1104 0.978002 7.84458 23.3848
340 1 -1.1104 3.90413 7.61522 26.3684
320 1 -1.1104 6.4329 -3.54028 26.267
316 1 -1.1104 6.62697 7.84764 23.558
298 1 -1.1104 6.79064 2.26174 20.4815
302 1 -1.1104 6.74751 -0.466639 20.8739
299 1 -1.1104 6.67135 7.90237 20.8346
315 1 -1.1104 6.76326 2.05163 23.317
303 1 -1.1104 6.50737 5.09805 20.6837
328 1 -1.1104 6.69785 5.04156 23.6133
253 2 2.2208 -0.546336 3.61184 19.2256
54 2 2.2208 2.36802 3.6269 27.6729
347 2 2.2208 -0.580993 3.61006 24.8954
288 2 2.2208 13.8562 0.696818 19.3092
354 1 -1.1104 9.21181 4.90934 26.3883
396 2 2.2208 10.8694 -5.01709 22.0331
379 1 -1.1104 12.1629 7.65962 26.3226
322 1 -1.1104 6.66072 7.68758 26.4296
314 1 -1.1104 6.52698 -3.42165 23.5309
331 1 -1.1104 6.81897 -0.688838 26.4901
332 1 -1.1104 6.54913 4.9751 26.4957
386 1 -1.1104 9.31595 -3.2899 26.1515
369 1 -1.1104 12.2019 -3.61855 20.5142
381 1 -1.1104 9.58331 2.37522 20.7738
362 1 -1.1104 12.2203 2.20893 26.453
368 1 -1.1104 12.136 -0.809431 26.4095
321 1 -1.1104 6.62848 2.14027 26.0955
365 1 -1.1104 12.297 5.06884 26.2154
389 1 -1.1104 9.33016 2.35493 23.5425
359 2 2.2208 8.04687 3.61359 22.1286
376 1 -1.1104 12.2405 4.96889 23.4888
377 1 -1.1104 12.1691 -0.836532 23.7288
367 2 2.2208 10.7071 6.45711 22.1849
378 1 -1.1104 12.0804 7.74537 23.4466
371 1 -1.1104 12.3341 7.78774 20.9086
373 2 2.2208 10.9193 0.864888 22.2988
355 1 -1.1104 9.29689 -0.620537 26.4128
361 1 -1.1104 9.43954 7.81346 26.504
390 1 -1.1104 9.38906 -3.27094 23.3046
372 1 -1.1104 12.055 -3.74731 26.0748
357 2 2.2208 7.98413 6.45022 25.0129
363 1 -1.1104 12.1246 2.17087 23.7426
384 1 -1.1104 9.35704 4.88573 20.81
370 1 -1.1104 12.4528 2.06455 20.9259
380 1 -1.1104 9.47641 -3.3355 20.6848
375 1 -1.1104 12.1813 5.07098 20.7643
385 1 -1.1104 9.35933 2.13584 26.2796
383 1 -1.1104 9.38429 -0.481685 20.7959
387 1 -1.1104 9.38668 7.86402 23.7363
360 2 2.2208 8.03251 -1.98192 22.133
388 2 2.2208 10.7772 3.81191 24.7843
391 2 2.2208 10.7164 -2.04513 24.8492
358 1 -1.1104 9.37192 -0.488648 23.6252
366 1 -1.1104 12.35 -3.54837 23.2869
356 1 -1.1104 9.37315 5.14927 23.4817
108 2 2.2208 8.07482 -2.17717 27.7171
120 2 2.2208 10.7687 -5.01898 27.6139
203 2 2.2208 8.01214 6.45591 13.6402
213 2 2.2208 8.07009 -4.74236 13.5606
200 2 2.2208 10.851 -1.8434 13.6632
398 2 2.2208 5.2859 12.127 5.39196
399 2 2.2208 5.29557 17.7981 5.30174
400 1 -1.1104 0.94478 13.4449 1.0104
402 1 -1.1104 1.23011 18.9994 1.07995
406 1 -1.1104 0.815012 13.2312 3.66887
407 1 -1.1104 1.19092 18.9019 3.78183
410 2 2.2208 5.17766 9.2023 2.32395
411 2 2.2208 5.38325 14.7137 2.622
412 2 2.2208 5.40611 20.4715 2.28382
413 1 -1.1104 1.00484 10.6623 0.991432
415 1 -1.1104 0.901263 16.1135 0.972153
421 1 -1.1104 1.0272 10.6024 3.76409
422 1 -1.1104 0.973643 16.0814 3.85704
425 2 2.2208 2.35372 12.0455 2.35932
426 2 2.2208 2.52247 17.5688 2.54556
427 1 -1.1104 3.76203 13.4936 0.857231
429 1 -1.1104 3.92964 19.0963 1.07601
430 1 -1.1104 3.8351 13.5529 3.80082
431 1 -1.1104 4.0792 19.3108 3.89525
432 2 2.2208 2.56822 9.22839 5.10564
433 2 2.2208 2.40999 14.8324 5.21356
434 2 2.2208 2.42462 20.5555 5.29467
435 1 -1.1104 3.86497 10.6727 1.05504
437 1 -1.1104 3.857 16.1654 1.26321
439 1 -1.1104 3.9104 10.8368 3.73057
440 1 -1.1104 3.98078 16.3564 3.80979
494 2 2.2208 13.6907 14.7878 -0.382856
417 1 -1.1104 6.79528 10.7448 1.11156
542 2 2.2208 -0.429346 17.6706 11.0527
408 1 -1.1104 6.93433 13.5304 3.80269
424 1 -1.1104 6.72996 16.3516 3.72531
9793 2 2.2208 13.7608 17.5823 2.47261
538 2 2.2208 -0.560798 14.8584 7.99665
496 1 -1.1104 1.08555 18.9603 6.49966
582 2 2.2208 13.8074 17.6716 8.13923
449 2 2.2208 -0.340927 17.5922 5.12758
579 2 2.2208 8.07778 12.2395 13.6945
555 1 -1.1104 12.3846 10.56 9.2995
556 1 -1.1104 12.4425 16.4848 12.2171
423 1 -1.1104 6.69154 10.776 4.01758
405 1 -1.1104 6.75012 19.1604 1.21697
403 1 -1.1104 6.53844 13.5195 0.947671
419 1 -1.1104 6.63538 16.2144 1.06365
535 2 2.2208 5.18547 9.23107 13.6846
480 1 -1.1104 9.34372 10.5435 6.61843
409 1 -1.1104 6.6928 18.9895 3.90995
453 2 2.2208 10.8565 12.0463 5.19407
454 2 2.2208 10.944 17.7548 5.23931
455 1 -1.1104 12.3351 13.332 0.999203
457 1 -1.1104 12.2146 19.0303 1.00662
458 1 -1.1104 12.4022 13.4863 3.8972
459 1 -1.1104 12.1657 19.2881 3.71083
460 2 2.2208 10.8879 9.05849 2.37038
461 2 2.2208 10.9174 14.8332 2.47791
462 2 2.2208 10.8311 20.5565 2.42666
463 1 -1.1104 12.0571 10.3025 0.94538
465 1 -1.1104 12.3295 16.1288 1.30326
467 1 -1.1104 12.2639 10.5813 3.76914
468 1 -1.1104 12.365 16.4946 3.97379
469 2 2.2208 8.05183 11.9745 2.56637
470 2 2.2208 8.08725 17.7438 2.49164
471 1 -1.1104 9.38648 13.3604 0.905037
473 1 -1.1104 9.53723 19.0046 1.07381
474 1 -1.1104 9.42279 13.4112 3.64958
475 1 -1.1104 9.38117 19.1705 3.6745
476 2 2.2208 7.96567 9.10942 5.1951
477 2 2.2208 8.12073 14.9367 5.16581
478 2 2.2208 7.97099 20.516 5.17707
479 1 -1.1104 9.45726 10.5454 1.01874
481 1 -1.1104 9.58178 16.1516 0.879614
483 1 -1.1104 9.49347 10.6066 3.91877
484 1 -1.1104 9.53158 16.4311 3.75053
489 2 2.2208 10.7572 11.8865 -0.531696
466 1 -1.1104 12.2818 16.2327 6.74149
558 2 2.2208 10.8374 20.6291 8.00118
404 1 -1.1104 6.60546 13.2943 6.77104
561 1 -1.1104 9.46194 19.1679 6.49179
464 1 -1.1104 12.1876 10.7532 6.56392
553 2 2.2208 8.23635 14.9658 10.7284
551 1 -1.1104 12.1204 16.1513 9.59922
428 1 -1.1104 3.91255 13.6689 6.69365
537 2 2.2208 -0.310505 20.5367 7.97867
414 1 -1.1104 0.88334 10.5824 6.5627
498 1 -1.1104 3.9028 19.0952 6.69768
438 1 -1.1104 3.64687 16.3874 6.55787
416 1 -1.1104 0.882617 16.1298 6.65214
401 1 -1.1104 1.10059 13.4054 6.51743
436 1 -1.1104 3.90516 10.7031 6.53682
499 2 2.2208 5.29039 12.2074 10.7527
500 2 2.2208 5.41669 17.7421 10.7626
501 1 -1.1104 0.901354 13.311 12.4704
502 1 -1.1104 1.06531 19.273 12.2201
505 1 -1.1104 1.01883 13.4597 9.39963
506 1 -1.1104 1.1239 18.8431 9.50704
509 2 2.2208 5.26252 9.26769 8.00486
510 2 2.2208 5.33653 14.9063 7.98113
511 2 2.2208 5.48329 20.6114 8.11911
512 1 -1.1104 0.746309 10.4812 12.2435
513 1 -1.1104 1.12859 16.2904 12.0749
516 1 -1.1104 0.882852 10.4879 9.31816
517 1 -1.1104 0.895042 16.0151 9.44223
520 2 2.2208 2.31729 11.9982 7.94356
521 2 2.2208 2.41781 17.6471 8.08044
522 1 -1.1104 3.83801 13.5357 12.1385
523 1 -1.1104 3.87069 18.9223 12.2682
524 1 -1.1104 3.88674 13.4182 9.31691
525 1 -1.1104 3.85894 19.0958 9.40019
526 2 2.2208 2.30722 9.11704 10.7936
527 2 2.2208 2.44481 14.9048 10.7403
528 2 2.2208 2.57991 20.4594 10.7916
529 1 -1.1104 3.83478 10.7035 12.1186
530 1 -1.1104 3.93079 16.2341 12.0359
531 1 -1.1104 3.65359 10.5741 9.28579
532 1 -1.1104 3.9548 16.1991 9.3498
518 1 -1.1104 6.6057 10.7346 9.49695
503 1 -1.1104 6.81705 13.6378 12.2874
514 1 -1.1104 6.62263 10.8055 12.373
504 1 -1.1104 6.72523 19.1087 12.2864
507 1 -1.1104 6.7694 13.4361 9.50142
418 1 -1.1104 6.64888 10.4962 6.51014
515 1 -1.1104 6.78146 16.2954 12.1427
540 2 2.2208 -0.528642 8.90156 7.96775
482 1 -1.1104 9.39051 16.4743 6.54965
580 2 2.2208 13.628 9.11379 10.8413
420 1 -1.1104 6.59223 16.4372 6.67474
472 1 -1.1104 9.38574 13.7779 6.6521
567 1 -1.1104 9.55521 18.9483 12.1962
552 2 2.2208 8.21708 20.4686 10.8229
566 1 -1.1104 9.48525 13.5334 9.27806
547 1 -1.1104 9.43167 10.7055 9.45729
456 1 -1.1104 12.191 13.4338 6.67303
560 1 -1.1104 12.3541 19.045 6.62417
557 1 -1.1104 12.1677 10.4692 12.1255
559 2 2.2208 10.8737 14.8694 8.01831
549 1 -1.1104 9.39431 10.5846 12.0617
569 2 2.2208 8.04297 17.7649 8.00358
519 1 -1.1104 6.58549 16.3177 9.36406
508 1 -1.1104 6.86394 19.2917 9.53342
565 1 -1.1104 9.47717 19.0286 9.35329
573 1 -1.1104 12.4084 19.2319 12.1077
564 1 -1.1104 12.3837 13.2764 9.39479
550 2 2.2208 8.19083 12.0115 8.00093
546 1 -1.1104 9.48914 16.4002 9.16743
568 1 -1.1104 9.48814 13.5078 12.2251
571 2 2.2208 11.0271 17.6519 10.8945
570 2 2.2208 10.9493 11.9835 10.8863
563 1 -1.1104 12.3445 19.046 9.38372
497 1 -1.1104 6.60263 19.2633 6.86366
572 1 -1.1104 12.2115 13.4822 12.2215
548 1 -1.1104 9.65029 16.2343 12.4595
562 2 2.2208 10.9 9.13721 8.03334
554 2 2.2208 7.96704 9.27082 10.8462
533 2 2.2208 2.46628 17.5794 13.6432
487 2 2.2208 8.01412 9.12802 -0.353944
577 2 2.2208 10.9365 14.9014 13.757
486 2 2.2208 8.16981 14.7878 -0.388157
545 2 2.2208 -0.405329 20.4496 13.7189
576 2 2.2208 8.14065 17.6147 13.7001
541 2 2.2208 -0.443453 14.8229 13.6782
578 2 2.2208 10.7363 9.28678 13.6376
441 2 2.2208 2.36576 20.3502 -0.274959
445 2 2.2208 5.32019 12.0849 -0.341645
586 2 2.2208 5.19086 12.0355 16.5926
587 2 2.2208 5.36495 17.7536 16.3504
588 1 -1.1104 0.877126 13.4606 17.8553
589 1 -1.1104 1.308 18.932 17.7064
592 1 -1.1104 0.95243 13.5542 15.2434
593 1 -1.1104 1.08673 19.2542 14.8825
596 2 2.2208 5.14882 9.18535 19.5255
597 2 2.2208 5.22785 14.9071 19.2791
598 2 2.2208 5.40976 20.6571 19.1705
599 1 -1.1104 1.05839 10.5108 18.0126
600 1 -1.1104 0.921182 16.2015 17.8292
603 1 -1.1104 1.01806 10.7414 15.0756
604 1 -1.1104 1.01255 16.3755 14.957
607 2 2.2208 2.1726 12.1673 19.4124
608 2 2.2208 2.44968 17.8002 19.3895
609 1 -1.1104 3.74859 13.6533 17.8783
610 1 -1.1104 4.0318 19.3809 17.9376
611 1 -1.1104 3.97654 13.4915 14.9242
612 1 -1.1104 3.88179 18.8804 15.0916
613 2 2.2208 2.56592 9.24921 16.7235
614 2 2.2208 2.39222 14.895 16.6602
615 2 2.2208 2.51289 20.4396 16.3619
616 1 -1.1104 3.79371 10.8893 17.8771
617 1 -1.1104 3.76996 16.1709 17.8391
618 1 -1.1104 3.83223 10.6466 15.1965
619 1 -1.1104 3.83854 16.0883 14.9468
534 2 2.2208 5.18627 14.7892 13.4896
544 2 2.2208 5.24378 20.3663 13.5737
707 2 2.2208 -0.433028 17.6064 22.1434
741 2 2.2208 13.8508 11.8844 24.9523
659 1 -1.1104 1.03782 19.2494 20.7536
591 1 -1.1104 6.93045 19.035 17.8875
602 1 -1.1104 6.71668 16.1844 17.7361
621 2 2.2208 -0.370605 20.4945 19.4392
658 1 -1.1104 0.943877 13.5393 20.6971
620 2 2.2208 -0.252679 17.7397 16.3958
743 2 2.2208 13.6971 9.24771 22.0184
654 2 2.2208 13.6717 17.804 19.4028
622 2 2.2208 -0.416483 14.9321 19.2732
605 1 -1.1104 6.79272 10.6584 15.1891
590 1 -1.1104 6.55751 13.4258 17.9821
606 1 -1.1104 6.83617 16.31 15.0379
595 1 -1.1104 6.65365 19.1602 15.09
594 1 -1.1104 6.63736 13.3 15.1274
581 2 2.2208 13.7256 11.9733 13.5972
488 2 2.2208 10.9038 17.5863 27.7348
601 1 -1.1104 6.55407 10.3896 17.855
625 2 2.2208 10.8663 11.9786 16.423
626 2 2.2208 10.7943 17.674 16.4303
627 1 -1.1104 12.351 13.6435 17.7541
628 1 -1.1104 12.1604 19.1814 17.8653
629 1 -1.1104 12.4021 13.4433 14.992
630 1 -1.1104 12.3627 19.0964 15.0613
632 2 2.2208 10.9178 9.07823 19.4722
633 2 2.2208 10.7893 14.8422 19.1892
634 2 2.2208 10.6533 20.3852 19.2512
635 1 -1.1104 12.4112 10.6654 17.7418
636 1 -1.1104 12.3026 16.4134 17.7536
637 1 -1.1104 12.1348 10.6013 15.1035
638 1 -1.1104 12.3787 16.3961 14.9046
639 2 2.2208 8.00577 11.9592 19.211
640 2 2.2208 8.0157 17.5387 19.2816
641 1 -1.1104 9.40368 13.2436 17.6806
642 1 -1.1104 9.46286 18.8497 17.8757
643 1 -1.1104 9.57151 13.5495 14.8602
644 1 -1.1104 9.57527 19.1128 15.0173
646 2 2.2208 8.08454 9.12239 16.7399
647 2 2.2208 8.04475 14.7399 16.3808
648 2 2.2208 8.0534 20.4341 16.379
649 1 -1.1104 9.40545 10.5087 18.0449
650 1 -1.1104 9.41504 16.0824 17.8986
651 1 -1.1104 9.58729 10.8082 14.9386
652 1 -1.1104 9.43257 16.1661 15.1185
732 1 -1.1104 9.31827 16.2674 20.7551
731 1 -1.1104 9.49769 10.5614 20.9785
722 1 -1.1104 12.038 13.3681 20.7563
655 2 2.2208 13.7956 9.2651 16.4689
736 2 2.2208 7.83855 17.4978 25.0541
709 1 -1.1104 9.40495 16.336 26.3927
444 2 2.2208 5.12266 17.486 28.0486
442 2 2.2208 2.24462 14.8417 27.793
667 1 -1.1104 3.9136 19.0791 20.7695
663 1 -1.1104 0.869343 16.3083 20.7335
668 1 -1.1104 3.61987 10.4065 20.5839
660 1 -1.1104 6.5461 13.3824 20.5007
662 1 -1.1104 0.905544 10.7098 20.8902
669 1 -1.1104 3.71737 16.3487 20.6895
666 1 -1.1104 3.75036 13.4144 20.7184
670 2 2.2208 5.22321 12.1125 22.0386
671 2 2.2208 5.11999 17.5629 22.2203
672 1 -1.1104 0.754311 13.4234 23.3468
673 1 -1.1104 1.13606 18.9644 23.5273
676 1 -1.1104 1.00878 13.6046 26.4151
677 1 -1.1104 0.968995 18.9455 26.4249
680 2 2.2208 5.03613 9.22361 24.9791
681 2 2.2208 5.23465 14.7813 25.1019
682 2 2.2208 5.21127 20.4064 25.1735
683 1 -1.1104 1.04277 10.7457 23.6198
684 1 -1.1104 0.983375 16.1522 23.3931
687 1 -1.1104 0.910772 10.5576 26.3862
688 1 -1.1104 1.0249 16.2402 26.3375
691 2 2.2208 2.41889 12.0402 24.9953
692 2 2.2208 2.42525 17.7759 25.027
693 1 -1.1104 3.64377 13.4931 23.5516
694 1 -1.1104 3.76006 19.261 23.5752
695 1 -1.1104 3.77043 13.4198 26.4213
696 1 -1.1104 3.72976 19.0185 26.3974
697 2 2.2208 2.39717 9.21832 22.1158
698 2 2.2208 2.32589 14.8701 22.1235
699 2 2.2208 2.47896 20.4422 22.1021
700 1 -1.1104 3.81445 10.7642 23.4469
701 1 -1.1104 3.8271 16.1902 23.7615
702 1 -1.1104 3.75588 10.6419 26.301
703 1 -1.1104 3.88348 16.209 26.4503
664 1 -1.1104 6.56329 10.6394 20.8073
661 1 -1.1104 6.56639 18.9908 20.8603
689 1 -1.1104 6.5596 10.5222 26.3882
729 1 -1.1104 12.2909 10.5016 23.5905
443 2 2.2208 2.41872 9.17418 27.6115
653 2 2.2208 13.8296 11.932 19.1664
719 1 -1.1104 12.2201 16.1003 26.5465
715 2 2.2208 8.01993 9.15257 22.2628
745 2 2.2208 13.664 20.4081 22.0732
710 1 -1.1104 9.34063 10.5898 26.3165
734 1 -1.1104 9.32224 18.8736 23.5848
718 2 2.2208 10.7905 20.6569 24.7617
631 1 -1.1104 12.1753 19.0817 20.8283
735 1 -1.1104 9.43139 13.096 23.3017
737 2 2.2208 8.03935 11.9297 24.9008
685 1 -1.1104 6.46649 10.4992 23.6226
675 1 -1.1104 6.46564 18.9917 23.6942
679 1 -1.1104 6.56318 18.9138 26.3478
690 1 -1.1104 6.58607 16.1482 26.5009
678 1 -1.1104 6.58404 13.3479 26.3496
739 2 2.2208 10.7438 17.5653 22.1523
716 1 -1.1104 9.32767 19.1958 26.3228
720 1 -1.1104 12.1821 18.9353 26.3705
738 2 2.2208 10.9212 11.8962 22.1702
728 1 -1.1104 12.2823 19.0472 23.3982
726 1 -1.1104 12.3073 10.3702 20.5447
686 1 -1.1104 6.4584 16.1191 23.6599
665 1 -1.1104 6.45557 16.1542 20.8107
674 1 -1.1104 6.68887 13.37 23.374
727 1 -1.1104 12.1834 16.1738 20.6363
740 1 -1.1104 12.2344 13.4117 23.4397
724 2 2.2208 10.9023 14.8125 24.9874
733 1 -1.1104 9.33661 13.329 26.1971
723 1 -1.1104 12.3179 13.2123 26.3431
714 2 2.2208 7.93853 14.8156 22.12
713 2 2.2208 7.96784 20.4679 22.1466
717 2 2.2208 10.8167 9.22436 24.8978
725 1 -1.1104 12.0356 16.3309 23.5861
721 1 -1.1104 12.1947 10.5012 26.2693
711 1 -1.1104 9.36068 15.9508 23.4986
730 1 -1.1104 9.29722 13.4536 20.5224
712 1 -1.1104 9.46037 10.5815 23.6992
645 1 -1.1104 9.20104 19.0249 20.5945
583 2 2.2208 13.9083 17.7264 13.6561
585 2 2.2208 11.0178 20.4106 13.6751
485 2 2.2208 8.18801 20.5656 27.6553
536 2 2.2208 2.38729 12.0109 13.5743
746 2 2.2208 5.21677 23.3343 5.22999
748 2 2.2208 5.44781 29.0353 5.20605
749 1 -1.1104 0.994465 24.7109 1.17358
750 1 -1.1104 0.972614 30.439 0.917367
753 1 -1.1104 0.998378 24.6227 3.8552
754 1 -1.1104 1.10736 30.5335 3.97099
757 2 2.2208 5.21655 26.1228 2.51786
758 2 2.2208 5.28742 31.6729 2.44132
759 1 -1.1104 1.01826 21.7453 1.01805
760 1 -1.1104 0.902345 27.6778 1.13396
761 1 -1.1104 1.14376 33.2097 1.13503
765 1 -1.1104 0.886406 21.7057 3.85587
766 1 -1.1104 0.957071 27.5742 3.97825
767 1 -1.1104 1.14745 33.2454 3.83533
771 2 2.2208 2.32467 23.2285 2.59758
772 2 2.2208 2.48124 28.9244 2.51063
773 1 -1.1104 3.81461 24.9207 1.08075
774 1 -1.1104 3.67417 30.2852 1.12955
775 1 -1.1104 3.78714 24.8012 3.62886
776 1 -1.1104 3.84373 30.2649 3.7318
778 2 2.2208 2.44171 26.1644 5.36988
779 2 2.2208 2.6678 31.8912 5.25581
780 1 -1.1104 3.68154 21.8847 1.10186
781 1 -1.1104 3.70584 27.5843 1.02817
782 1 -1.1104 3.96318 33.1981 1.07809
783 1 -1.1104 3.63905 22.0899 3.898
784 1 -1.1104 3.85006 27.6599 3.91533
785 1 -1.1104 4.08711 33.0611 3.92585
1033 2 2.2208 10.7924 31.7478 13.7533
764 1 -1.1104 6.74674 33.2498 0.994554
768 1 -1.1104 6.46003 21.9333 3.75125
832 1 -1.1104 1.00905 21.9394 6.48975
833 1 -1.1104 1.06253 27.5863 6.77734
756 1 -1.1104 6.66907 30.3183 3.60596
1080 2 2.2208 2.59505 31.781 -0.433282
762 1 -1.1104 6.59741 22.0008 0.866527
791 2 2.2208 5.14279 23.4498 -0.347284
924 2 2.2208 8.07274 23.4882 8.04364
839 1 -1.1104 4.0807 30.4539 6.71729
840 1 -1.1104 3.79298 21.7966 6.74591
841 1 -1.1104 3.8313 27.6698 6.47844
828 1 -1.1104 1.10624 24.6733 6.64409
838 1 -1.1104 3.93799 24.8255 6.49998
927 2 2.2208 13.6069 23.438 8.10376
889 1 -1.1104 9.51832 33.2152 12.1298
789 2 2.2208 -0.413145 29.0629 5.34378
882 2 2.2208 -0.21269 23.381 10.8388
769 1 -1.1104 6.6658 27.5926 3.83514
751 1 -1.1104 6.56669 24.8057 1.01627
752 1 -1.1104 6.67333 30.2657 0.928956
763 1 -1.1104 6.49992 27.5036 1.07199
770 1 -1.1104 6.7073 33.0658 3.73117
755 1 -1.1104 6.66528 24.6813 3.84523
793 2 2.2208 10.9981 23.5893 5.20738
794 2 2.2208 10.8421 29.2805 5.24867
795 1 -1.1104 12.2494 24.6447 1.07512
796 1 -1.1104 12.26 30.5259 1.00129
797 1 -1.1104 12.203 24.8685 3.87199
798 1 -1.1104 12.3062 30.5455 3.89238
799 2 2.2208 10.821 26.2041 2.36242
800 2 2.2208 10.9163 31.766 2.50388
801 1 -1.1104 12.2591 21.8297 0.980613
802 1 -1.1104 11.9936 27.5826 0.912769
803 1 -1.1104 12.331 33.1203 1.02459
804 1 -1.1104 12.2981 21.9568 3.77612
805 1 -1.1104 12.5414 27.7187 3.54324
806 1 -1.1104 12.2088 33.2244 3.87126
807 2 2.2208 7.99989 23.1305 2.37987
808 2 2.2208 8.10215 28.9106 2.32568
809 1 -1.1104 9.30373 24.5704 0.891446
810 1 -1.1104 9.53143 30.2837 1.08954
811 1 -1.1104 9.36768 24.7029 3.83445
812 1 -1.1104 9.48484 30.3741 3.87105
814 2 2.2208 7.97865 26.1824 5.20003
815 2 2.2208 8.23572 31.8645 5.22375
816 1 -1.1104 9.27043 21.8239 1.02367
817 1 -1.1104 9.41308 27.4433 0.89112
818 1 -1.1104 9.41167 33.0989 1.17653
819 1 -1.1104 9.25938 21.938 3.89973
820 1 -1.1104 9.61126 27.5338 3.86229
821 1 -1.1104 9.5427 33.3494 4.04208
904 1 -1.1104 9.44106 27.7275 6.58633
896 1 -1.1104 12.2889 30.664 6.69202
836 1 -1.1104 6.75923 27.6095 6.63911
897 1 -1.1104 12.2932 22.0543 6.54762
892 1 -1.1104 9.37418 21.5756 12.3786
1115 2 2.2208 10.7996 28.9443 -0.41692
853 1 -1.1104 6.72339 30.2091 9.47142
849 1 -1.1104 6.81554 30.4979 12.1649
895 1 -1.1104 12.2538 24.7278 6.80255
859 1 -1.1104 6.53647 22.0514 12.2619
842 1 -1.1104 3.92561 33.231 6.67356
834 1 -1.1104 1.09629 33.0723 6.73593
829 1 -1.1104 1.22488 30.3865 6.79071
844 2 2.2208 5.23566 23.4939 10.8418
845 2 2.2208 5.2663 28.8097 10.8059
846 1 -1.1104 0.967198 24.7637 12.1954
847 1 -1.1104 1.04057 30.153 12.5066
850 1 -1.1104 1.19513 24.6882 9.44621
851 1 -1.1104 1.09891 30.2485 9.57889
854 2 2.2208 5.17924 26.2417 7.99884
855 2 2.2208 5.30657 31.7005 8.12141
856 1 -1.1104 0.888505 21.8744 12.1069
857 1 -1.1104 0.883074 27.3587 12.2417
858 1 -1.1104 0.993972 33.2785 12.2103
862 1 -1.1104 1.34006 21.6214 9.28276
863 1 -1.1104 1.15462 27.5324 9.47876
864 1 -1.1104 1.22671 32.9939 9.37371