ITEM: TIMESTEP
20000
ITEM: NUMBER OF ATOMS
18000
ITEM: BOX BOUNDS pp pp pp
-3.8810409438168825e-01 2.7728104094381710e+01
-4.7955512022800599e+00 3.3287555120228978e+02
-3.9169601795169962e-01 2.7731696017951805e+01
ITEM: ATOMS id type q x y z
1 2 2.2208 5.21414 0.856503 5.29503
2 2 2.2208 5.40917 6.38631 5.09229
3 1 -1.1104 1.03207 -3.36106 1.00118
5 1 -1.1104 0.834608 2.26765 1.04446
15 1 -1.1104 1.08106 -3.33928 3.88631
16 1 -1.1104 0.997423 2.27756 3.97052
17 1 -1.1104 1.10656 7.81059 3.8703
21 2 2.2208 5.14674 -1.99822 2.47484
22 2 2.2208 5.29082 3.64255 2.39635
23 1 -1.1104 1.01172 -0.599294 0.938891
25 1 -1.1104 0.93742 5.15415 0.959437
31 1 -1.1104 0.880939 -0.525924 3.94611
32 1 -1.1104 1.16443 4.91089 3.80714
35 2 2.2208 2.39308 1.00517 2.56132
36 2 2.2208 2.49319 6.46394 2.52319
37 1 -1.1104 3.94235 -3.58917 1.11373
39 1 -1.1104 3.83435 2.20883 1.2126
41 1 -1.1104 3.88927 7.91795 0.983618
43 1 -1.1104 3.68317 -3.24229 3.90512
44 1 -1.1104 3.88509 2.12707 3.82666
45 1 -1.1104 3.87302 7.80977 3.85145
46 2 2.2208 2.32299 -1.77092 5.41972
47 2 2.2208 2.4453 3.66247 5.41569
48 1 -1.1104 3.80246 -0.506659 1.11283
50 1 -1.1104 3.69484 5.05229 1.19047
52 1 -1.1104 3.68163 -0.712732 3.77277
53 1 -1.1104 3.87342 4.9175 3.93527
7 1 -1.1104 1.11571 7.89329 1.03307
34 1 -1.1104 6.68694 5.0742 3.77381
13 1 -1.1104 6.86179 7.83659 0.982172
20 1 -1.1104 6.75905 7.88295 3.82285
65 2 2.2208 5.14792 -4.74654 5.22517
120 2 2.2208 10.7564 -4.6093 -0.434579
33 1 -1.1104 6.58698 -0.48203 3.80024
118 2 2.2208 7.9958 -4.68095 2.34935
102 1 -1.1104 9.45073 -0.701401 6.66195
29 1 -1.1104 6.66362 5.1499 1.17723
19 1 -1.1104 6.7545 2.42866 3.82018
54 2 2.2208 2.38367 3.63001 -0.301531
27 1 -1.1104 6.36899 -0.505766 1.11493
119 2 2.2208 10.7745 -4.68918 5.35495
56 2 2.2208 5.46721 6.41432 -0.275555
183 1 -1.1104 9.29988 2.24539 9.60351
116 2 2.2208 13.7784 3.68993 -0.33995
205 2 2.2208 13.6503 0.858485 13.702
175 1 -1.1104 9.70075 -0.815683 12.2297
9 1 -1.1104 6.79851 -3.21775 0.876912
11 1 -1.1104 6.62868 2.21743 0.982733
18 1 -1.1104 6.40944 -3.39384 3.76673
174 1 -1.1104 9.42392 5.08196 12.2293
173 1 -1.1104 9.47399 -0.640383 9.52823
69 2 2.2208 10.8186 0.787871 5.27366
70 2 2.2208 10.8284 6.5917 5.2463
71 1 -1.1104 12.3311 -3.38879 1.20473
73 1 -1.1104 12.2692 2.32228 0.984781
75 1 -1.1104 12.225 7.93993 0.978268
77 1 -1.1104 12.1319 -3.27194 3.94104
78 1 -1.1104 12.2829 2.47409 3.77202
79 1 -1.1104 12.2625 7.99351 3.97569
80 2 2.2208 10.963 -1.85386 2.48886
81 2 2.2208 10.7942 3.67875 2.46255
82 1 -1.1104 12.205 -0.44832 1.0333
84 1 -1.1104 12.1879 5.10906 1.00205
86 1 -1.1104 12.2294 -0.360309 3.80486
87 1 -1.1104 12.1708 5.16202 3.88878
88 2 2.2208 8.06959 0.973647 2.51037
89 2 2.2208 8.14334 6.49265 2.41444
90 1 -1.1104 9.59065 -3.09198 0.999649
92 1 -1.1104 9.48657 2.41755 1.23464
94 1 -1.1104 9.55947 7.88526 0.982176
96 1 -1.1104 9.29214 -3.28728 3.75563
97 1 -1.1104 9.5414 2.2798 3.89658
99 2 2.2208 8.05205 -2.00593 5.11026
100 2 2.2208 8.097 3.7138 5.12275
101 1 -1.1104 9.44578 -0.24306 1.12388
103 1 -1.1104 9.37782 5.07239 0.951468
105 1 -1.1104 9.53883 -0.720547 3.84675
106 1 -1.1104 9.45165 5.10225 3.82138
98 1 -1.1104 9.51594 7.86471 3.84883
185 1 -1.1104 12.2527 2.3726 12.3025
95 1 -1.1104 9.57376 7.75028 6.75782
30 1 -1.1104 6.6094 4.94291 6.65774
93 1 -1.1104 9.44953 2.19346 6.64844
76 1 -1.1104 12.3542 7.94118 6.88701
172 1 -1.1104 9.65848 5.25275 9.3609
109 2 2.2208 10.8197 6.45379 -0.431564
189 2 2.2208 10.9497 6.47388 10.8604
208 2 2.2208 13.6087 -2.00828 10.8618
177 2 2.2208 7.93029 -2.00294 10.8628
199 1 -1.1104 12.354 7.94635 9.58748
194 1 -1.1104 9.41929 8.05691 12.317
133 1 -1.1104 6.6011 -3.36429 9.50298
180 1 -1.1104 12.2233 -3.24973 9.52827
51 1 -1.1104 3.85076 5.13046 6.65896
4 1 -1.1104 0.8374 -3.3601 6.85672
8 1 -1.1104 1.01053 7.92542 6.55616
26 1 -1.1104 0.97371 5.20094 6.64284
40 1 -1.1104 3.80949 2.2769 6.64779
49 1 -1.1104 3.75412 -0.425001 6.50023
24 1 -1.1104 0.936523 -0.498353 6.70836
6 1 -1.1104 0.976864 2.20159 6.68533
38 1 -1.1104 3.70135 -3.24356 6.68243
126 1 -1.1104 0.984213 7.73974 12.2929
121 1 -1.1104 3.88892 4.89514 9.46334
122 2 2.2208 5.13897 0.723333 10.8094
123 2 2.2208 5.25363 6.45422 10.8882
124 1 -1.1104 0.965519 -3.40511 12.382
125 1 -1.1104 0.95651 2.2524 12.2072
130 1 -1.1104 0.993031 -3.28564 9.48962
131 1 -1.1104 0.979361 2.13459 9.53174
197 1 -1.1104 9.41256 -3.58753 12.4227
136 2 2.2208 5.23855 -1.81523 8.01006
137 2 2.2208 5.28993 3.60504 7.85999
138 1 -1.1104 0.822987 -0.52633 12.4512
139 1 -1.1104 0.995039 4.83466 12.3326
142 1 -1.1104 0.998802 -0.563513 9.60814
143 1 -1.1104 0.962657 4.89151 9.4318
146 2 2.2208 2.39465 0.811635 8.10711
147 2 2.2208 2.4134 6.39256 8.06783
148 1 -1.1104 3.82358 -3.42856 12.2679
149 1 -1.1104 3.97031 2.29916 12.1746
150 1 -1.1104 3.96584 7.85745 12.3434
151 1 -1.1104 3.83657 -3.37453 9.43994
152 1 -1.1104 3.70767 2.03643 9.44215
153 1 -1.1104 3.6211 7.75763 9.57172
154 2 2.2208 2.28735 -1.96024 11.0184
155 2 2.2208 2.399 3.58804 10.9029
156 1 -1.1104 3.58383 -0.452625 12.3608
157 1 -1.1104 3.85018 5.0267 12.3357
158 1 -1.1104 3.76933 -0.749563 9.30464
141 1 -1.1104 6.66687 5.11054 12.2285
134 1 -1.1104 6.4717 2.18456 9.26918
10 1 -1.1104 6.57644 -3.31379 6.50435
14 1 -1.1104 6.99327 7.81929 6.59862
144 1 -1.1104 6.58307 -0.424179 9.49067
145 1 -1.1104 6.78009 4.94208 9.49647
184 1 -1.1104 12.1754 -0.470084 9.53561
192 1 -1.1104 12.2974 2.3607 9.57856
42 1 -1.1104 4.03948 7.87541 6.58778
182 1 -1.1104 9.44877 7.87431 9.52671
176 2 2.2208 8.02126 3.64213 10.8972
191 2 2.2208 10.9107 3.5986 8.05022
181 1 -1.1104 12.135 8.11584 12.2539
190 2 2.2208 10.8991 0.869597 10.984
179 1 -1.1104 12.4955 5.24618 9.46181
193 1 -1.1104 9.38543 -3.57149 9.52643
91 1 -1.1104 9.43408 -3.26692 6.74143
83 1 -1.1104 12.2878 -0.498809 6.64474
85 1 -1.1104 12.1574 4.87359 6.62662
28 1 -1.1104 6.72552 -0.529652 6.65508
178 2 2.2208 8.02965 0.795973 8.04769
12 1 -1.1104 6.68226 2.20435 6.51736
128 1 -1.1104 6.70283 2.27722 12.1361
135 1 -1.1104 6.66298 7.83744 9.33644
129 1 -1.1104 6.62337 7.82897 12.2759
195 1 -1.1104 9.40174 2.29555 12.4773
127 1 -1.1104 6.64112 -3.47258 12.4168
186 1 -1.1104 12.3558 -3.47355 12.2398
140 1 -1.1104 6.8119 -0.616041 12.2386
198 2 2.2208 8.05642 6.47801 8.08188
72 1 -1.1104 12.3596 -3.34146 6.61221
104 1 -1.1104 9.28681 4.99254 6.61548
74 1 -1.1104 12.3477 2.10609 6.80328
196 2 2.2208 10.7149 -2.04338 8.14576
187 1 -1.1104 12.1702 5.29446 12.2777
188 1 -1.1104 12.3936 -0.36723 12.245
114 2 2.2208 13.5638 3.70464 5.32623
60 2 2.2208 -0.349263 -2.04115 2.35223
168 2 2.2208 2.25051 -4.7533 7.97764
59 2 2.2208 -0.391963 3.65779 2.37202
132 1 -1.1104 0.939412 7.75085 9.38825
169 2 2.2208 5.20055 -4.85191 10.8051
210 2 2.2208 10.9423 -4.83636 10.9804
110 2 2.2208 10.9833 0.827742 -0.313969
55 2 2.2208 2.53095 -1.93241 -0.391243
214 2 2.2208 5.09499 0.813418 16.2707
215 2 2.2208 5.31942 6.42754 16.5596
216 1 -1.1104 1.15436 -3.25884 17.8859
217 1 -1.1104 1.16217 2.28666 17.9966
222 1 -1.1104 1.01997 -3.49624 15.0759
223 1 -1.1104 0.907994 2.35503 15.2408
224 1 -1.1104 0.862955 7.90402 14.9952
228 2 2.2208 5.14968 -2.16663 19.2412
229 2 2.2208 5.35918 3.78432 19.2522
230 1 -1.1104 0.908622 -0.450834 17.7963
231 1 -1.1104 1.04708 5.00985 17.9123
234 1 -1.1104 1.04989 -0.364788 15.2239
235 1 -1.1104 0.917782 5.07292 15.1013
238 2 2.2208 2.55036 0.880904 19.324
239 2 2.2208 2.49837 6.34427 19.2742
240 1 -1.1104 4.08127 -3.37937 17.7296
241 1 -1.1104 3.79807 2.32299 17.8319
242 1 -1.1104 3.83225 7.66377 17.9708
243 1 -1.1104 3.76656 -3.46969 14.9689
244 1 -1.1104 3.8396 2.28564 15.0274
245 1 -1.1104 3.85887 7.75173 15.1574
246 2 2.2208 2.38968 -1.89299 16.4071
247 2 2.2208 2.33158 3.72481 16.4831
248 1 -1.1104 3.75178 -0.465576 17.7162
249 1 -1.1104 3.88779 5.00581 17.8099
250 1 -1.1104 3.85071 -0.597506 15.0349
251 1 -1.1104 3.92995 5.13519 15.1291
233 1 -1.1104 6.71759 5.14386 17.824
227 1 -1.1104 6.74361 7.72498 15.2535
256 2 2.2208 -0.418701 0.948993 16.6327
159 2 2.2208 5.26642 -2.17988 13.7557
200 2 2.2208 10.9203 -2.15919 13.8217
225 1 -1.1104 6.60141 -3.57312 15.2269
162 2 2.2208 2.4839 6.33483 13.7526
160 2 2.2208 5.3385 3.66473 13.6411
232 1 -1.1104 6.58419 -0.451882 17.8563
220 1 -1.1104 6.78451 2.23238 17.7404
316 1 -1.1104 6.81047 7.85644 23.4266
296 1 -1.1104 1.10165 8.0507 20.7867
299 1 -1.1104 6.80373 7.7417 20.6634
253 2 2.2208 -0.467268 3.70928 19.4515
303 1 -1.1104 6.70836 4.81771 20.6521
218 1 -1.1104 1.09531 7.80137 17.8554
397 2 2.2208 8.12712 -4.71638 24.9613
289 2 2.2208 13.4505 -2.12644 16.4514
161 2 2.2208 2.2087 0.927248 13.7498
201 2 2.2208 8.22151 0.75704 13.752
252 2 2.2208 2.35764 -4.86562 13.6512
395 2 2.2208 13.7499 3.5937 22.2746
237 1 -1.1104 6.72344 4.90141 15.1057
219 1 -1.1104 6.88581 -3.31703 18.098
359 2 2.2208 8.16236 3.34668 22.0729
236 1 -1.1104 6.56295 -0.737836 15.0397
226 1 -1.1104 6.75736 2.12149 14.8461
260 2 2.2208 10.8785 0.708528 16.5703
261 2 2.2208 10.8897 6.5707 16.4931
262 1 -1.1104 12.211 -3.37055 17.8733
263 1 -1.1104 12.1905 2.25484 17.9238
264 1 -1.1104 12.2116 7.95693 17.804
265 1 -1.1104 12.3261 -3.71819 14.9356
266 1 -1.1104 12.4225 2.36906 14.9791
267 1 -1.1104 12.2156 7.98314 14.9284
268 2 2.2208 10.784 -2.11429 19.3018
269 2 2.2208 10.9626 3.76997 19.4731
270 1 -1.1104 12.117 -0.697875 17.7965
271 1 -1.1104 12.1942 5.16076 17.9299
272 1 -1.1104 12.2961 -0.587055 15.0989
273 1 -1.1104 12.293 5.23722 15.1377
274 2 2.2208 8.09587 0.762412 19.0906
275 2 2.2208 8.17757 6.37687 19.3581
276 1 -1.1104 9.52204 -3.59269 17.878
277 1 -1.1104 9.48431 2.17165 17.8314
279 1 -1.1104 9.48053 -3.54207 15.2637
280 1 -1.1104 9.58448 2.13396 15.1105
282 2 2.2208 8.01919 -2.09793 16.4917
283 2 2.2208 8.20747 3.52606 16.3672
284 1 -1.1104 9.33917 -0.704215 17.8939
285 1 -1.1104 9.51978 5.00876 18.0203
286 1 -1.1104 9.40032 -0.833148 15.0492
287 1 -1.1104 9.48001 4.93521 14.8989
281 1 -1.1104 9.516 7.93911 15.1575
203 2 2.2208 8.02165 6.49107 13.6085
368 1 -1.1104 12.1973 -0.353207 26.36
202 2 2.2208 11.0155 3.80951 13.6312
372 1 -1.1104 12.2338 -3.23539 26.5565
257 2 2.2208 2.48433 -4.81305 19.1367
382 1 -1.1104 9.52297 7.7357 20.7549
298 1 -1.1104 6.86206 2.19821 20.5721
380 1 -1.1104 9.55529 -3.45917 20.7354
373 2 2.2208 11.0126 0.788749 22.1172
221 1 -1.1104 6.66888 7.88808 18.0118
353 2 2.2208 2.3632 -4.77937 24.8842
360 2 2.2208 8.13873 -1.9722 22.0434
349 2 2.2208 -0.0994839 6.44451 22.152
351 2 2.2208 5.27108 -4.78694 22.21
308 1 -1.1104 3.76885 5.13293 20.6285
376 1 -1.1104 12.4048 4.98272 23.5712
305 1 -1.1104 3.95242 2.1992 20.6905
379 1 -1.1104 12.366 8.11199 26.144
294 1 -1.1104 1.04786 -3.37552 20.6435
306 1 -1.1104 3.87367 7.92812 20.6715
295 1 -1.1104 1.01462 2.13302 20.8753
300 1 -1.1104 1.09745 -0.455692 20.7412
301 1 -1.1104 0.996523 5.06288 20.7565
307 1 -1.1104 3.95529 -0.684236 20.7089
304 1 -1.1104 3.73136 -3.44172 20.4669
309 2 2.2208 5.40764 0.663397 22.0634
310 2 2.2208 5.26965 6.51278 22.1324
311 1 -1.1104 1.03684 -3.36989 23.6113
312 1 -1.1104 1.08402 2.28645 23.6779
317 1 -1.1104 0.980665 -3.32165 26.4467
318 1 -1.1104 0.891659 2.22626 26.6004
319 1 -1.1104 1.33882 7.85554 26.2347
323 2 2.2208 5.25207 -1.9521 24.9041
324 2 2.2208 5.399 3.60494 24.8872
325 1 -1.1104 1.22178 -0.652006 23.5689
326 1 -1.1104 1.24525 5.12598 23.5681
329 1 -1.1104 1.08585 -0.433354 26.2567
330 1 -1.1104 1.13187 5.08184 26.4015
333 2 2.2208 2.42416 0.901659 25.0081
334 2 2.2208 2.45895 6.42929 25.0468
335 1 -1.1104 3.7859 -3.53771 23.2568
336 1 -1.1104 4.01387 2.26979 23.2661
337 1 -1.1104 3.92209 7.73264 23.5343
338 1 -1.1104 3.82438 -3.41404 26.2799
339 1 -1.1104 3.87013 2.05033 26.3316
340 1 -1.1104 4.10853 7.59273 26.3772
341 2 2.2208 2.4124 -2.03801 22.0875
342 2 2.2208 2.52981 3.77785 22.0696
343 1 -1.1104 4.08221 -0.541968 23.5331
344 1 -1.1104 4.11345 4.93953 23.6316
345 1 -1.1104 3.89912 -0.750361 26.4892
346 1 -1.1104 3.92761 4.79989 26.5276
313 1 -1.1104 1.11675 7.83398 23.5788
331 1 -1.1104 6.72429 -0.481285 26.4305
314 1 -1.1104 6.63489 -3.39155 23.4543
321 1 -1.1104 6.61133 2.26994 26.3551
302 1 -1.1104 6.83397 -0.6092 20.6705
297 1 -1.1104 6.48181 -3.50994 20.6586
332 1 -1.1104 6.66478 4.96592 26.3421
315 1 -1.1104 6.85239 2.0154 23.6478
291 2 2.2208 8.02731 -4.97857 19.2925
366 1 -1.1104 12.4099 -3.3192 23.6239
357 2 2.2208 8.14855 6.42154 24.7713
369 1 -1.1104 12.3321 -3.50325 20.811
385 1 -1.1104 9.3673 2.13386 26.3161
384 1 -1.1104 9.35577 4.87648 20.9136
328 1 -1.1104 6.8051 5.13278 23.5667
322 1 -1.1104 6.88267 7.78567 26.3261
327 1 -1.1104 6.67927 -0.592203 23.5074
388 2 2.2208 10.9933 3.68094 24.9772
377 1 -1.1104 12.2057 -0.601285 23.2999
378 1 -1.1104 12.2725 7.76187 23.5708
358 1 -1.1104 9.46005 -0.589883 23.4414
367 2 2.2208 10.8644 6.30257 22.1172
354 1 -1.1104 9.32282 4.9184 26.3904
370 1 -1.1104 12.5168 2.30898 20.814
371 1 -1.1104 12.3143 7.75161 20.6825
363 1 -1.1104 12.3918 2.17026 23.6081
387 1 -1.1104 9.47247 7.83149 23.501
361 1 -1.1104 9.51052 7.89445 26.3191
364 2 2.2208 8.09027 0.692712 24.9813
356 1 -1.1104 9.78692 5.22376 23.8485
386 1 -1.1104 9.38978 -3.20673 26.3027
355 1 -1.1104 9.50396 -0.578736 26.4426
362 1 -1.1104 12.3639 2.3668 26.4145
390 1 -1.1104 9.39076 -3.53651 23.5903
375 1 -1.1104 12.3622 5.0761 20.8538
391 2 2.2208 10.9401 -1.91138 24.9392
381 1 -1.1104 9.78351 2.23238 20.6768
383 1 -1.1104 9.66061 -0.563353 20.7463
374 1 -1.1104 12.2373 -0.743274 20.5532
320 1 -1.1104 6.56067 -3.31504 26.3398
389 1 -1.1104 9.5551 2.18156 23.401
365 1 -1.1104 12.2105 5.22176 26.2483
278 1 -1.1104 9.48552 7.69632 17.9398
9700 2 2.2208 13.628 -4.74316 25.0895
57 2 2.2208 5.24899 0.717706 27.7984
108 2 2.2208 8.07661 -1.71723 27.8656
107 2 2.2208 8.07291 3.63147 27.7644
68 2 2.2208 -0.39809 -4.77552 27.5999
398 2 2.2208 5.14054 12.2167 5.35232
399 2 2.2208 5.26405 17.6694 5.28915
400 1 -1.1104 1.08966 13.4536 1.05368
402 1 -1.1104 1.06007 19.2706 0.965866
406 1 -1.1104 1.01767 13.7102 3.8752
407 1 -1.1104 0.992681 19.3595 3.95309
410 2 2.2208 5.32696 9.32574 2.4618
411 2 2.2208 5.2042 14.9606 2.46127
412 2 2.2208 5.276 20.5862 2.53215
413 1 -1.1104 1.24903 10.6954 1.16904
415 1 -1.1104 1.09616 16.2412 1.17977
421 1 -1.1104 1.04108 10.8665 3.84762
422 1 -1.1104 1.17297 16.5819 3.84484
425 2 2.2208 2.51648 12.1536 2.52954
426 2 2.2208 2.36816 17.9234 2.40401
427 1 -1.1104 3.87987 13.5916 1.09007
429 1 -1.1104 3.92288 19.3687 1.13186
430 1 -1.1104 3.77301 13.523 3.96482
431 1 -1.1104 3.69237 19.0818 4.07078
432 2 2.2208 2.557 9.31503 5.40781
433 2 2.2208 2.32372 14.9964 5.32645
434 2 2.2208 2.36386 20.4107 5.34074
435 1 -1.1104 3.97499 10.756 1.12921
437 1 -1.1104 3.75436 16.4275 1.12055
439 1 -1.1104 3.96711 10.6903 4.16934
440 1 -1.1104 3.96302 16.4353 3.7953
443 2 2.2208 2.61715 9.21179 -0.36989
442 2 2.2208 2.3093 14.9485 -0.243113
417 1 -1.1104 6.58771 10.5084 1.18214
408 1 -1.1104 6.5262 13.5546 3.93304
419 1 -1.1104 6.56976 16.3775 0.881633
423 1 -1.1104 6.75156 10.7624 3.99957
403 1 -1.1104 6.60166 13.3708 1.22159
424 1 -1.1104 6.65416 16.4102 3.814
409 1 -1.1104 6.89817 19.2377 3.86814
543 2 2.2208 -0.431217 12.0104 11.0755
451 2 2.2208 -0.294043 12.0434 -0.345199
537 2 2.2208 -0.230515 20.4957 8.13489
448 2 2.2208 -0.23041 9.09038 2.4683
542 2 2.2208 -0.360227 17.6989 10.8259
405 1 -1.1104 6.73918 19.1097 1.14432
491 2 2.2208 13.7343 9.42307 5.17278
9793 2 2.2208 13.6279 17.6422 2.46434
568 1 -1.1104 9.55518 13.4659 12.2937
453 2 2.2208 10.6972 12.0213 5.14558
454 2 2.2208 10.9105 17.6331 5.33611
455 1 -1.1104 12.3127 13.5801 0.864382
457 1 -1.1104 12.3247 19.104 0.961438
458 1 -1.1104 12.0872 13.2556 3.84776
459 1 -1.1104 12.3238 19.1854 3.86212
460 2 2.2208 10.9536 9.41196 2.4144
461 2 2.2208 10.7781 14.9007 2.43602
462 2 2.2208 10.823 20.5358 2.46508
463 1 -1.1104 12.2522 10.8564 0.908001
465 1 -1.1104 12.2116 16.3661 1.06078
467 1 -1.1104 12.4049 10.5927 3.6933
468 1 -1.1104 12.1864 16.254 4.03999
469 2 2.2208 7.92257 12.0576 2.43138
470 2 2.2208 8.14898 17.7938 2.52881
471 1 -1.1104 9.57578 13.5324 1.03682
473 1 -1.1104 9.53495 19.1657 1.03262
474 1 -1.1104 9.16406 13.5151 3.7291
475 1 -1.1104 9.61418 19.2174 3.95262
476 2 2.2208 8.20471 9.23781 5.25957
477 2 2.2208 7.97058 15.0007 5.23063
478 2 2.2208 8.00517 20.6343 5.27519
479 1 -1.1104 9.31228 10.8249 1.02223
481 1 -1.1104 9.34064 16.4258 1.11859
483 1 -1.1104 9.50279 10.6412 3.76387
484 1 -1.1104 9.39396 16.2781 3.92861
464 1 -1.1104 12.3102 10.8021 6.61663
472 1 -1.1104 9.33076 13.5133 6.61686
445 2 2.2208 5.19698 12.0262 -0.296369
571 2 2.2208 10.9247 17.7267 10.9114
554 2 2.2208 8.07885 9.26976 10.9292
559 2 2.2208 10.8239 14.886 8.1665
456 1 -1.1104 11.9876 13.6261 6.61011
482 1 -1.1104 9.55348 16.3623 6.78769
562 2 2.2208 10.8373 9.29157 8.10486
401 1 -1.1104 0.851321 13.4518 6.65758
418 1 -1.1104 6.6637 10.7611 6.78007
497 1 -1.1104 6.55458 19.1289 6.5765
404 1 -1.1104 6.5964 13.5747 6.72903
414 1 -1.1104 1.06373 10.7021 6.70887
498 1 -1.1104 3.77317 19.0808 6.69145
436 1 -1.1104 3.93982 10.9037 6.91089
496 1 -1.1104 0.947048 19.1547 6.69082
416 1 -1.1104 0.932521 16.2481 6.60894
438 1 -1.1104 3.85288 16.3424 6.57343
428 1 -1.1104 3.81788 13.7099 6.78291
499 2 2.2208 5.15588 11.9443 10.9243
500 2 2.2208 5.33914 17.4816 10.8302
501 1 -1.1104 1.07688 13.3737 12.5072
502 1 -1.1104 0.966814 19.1269 12.4499
505 1 -1.1104 0.951552 13.3087 9.64543
506 1 -1.1104 1.00967 18.8652 9.61729
509 2 2.2208 5.23232 9.28187 8.14729
510 2 2.2208 5.32656 14.8953 8.16312
511 2 2.2208 5.18859 20.4323 7.93876
512 1 -1.1104 0.920927 10.642 12.516
513 1 -1.1104 0.935758 16.3023 12.1479
516 1 -1.1104 0.985745 10.4186 9.65108
517 1 -1.1104 1.07596 16.075 9.41927
520 2 2.2208 2.28439 12.0301 8.21741
521 2 2.2208 2.47321 17.5853 8.07159
522 1 -1.1104 3.84621 13.5259 12.3212
523 1 -1.1104 3.76532 19.1263 12.2215
524 1 -1.1104 3.89255 13.5252 9.54406
525 1 -1.1104 3.84472 18.9091 9.33218
526 2 2.2208 2.29893 9.22367 11.1985
527 2 2.2208 2.40036 14.751 10.893
528 2 2.2208 2.47261 20.4131 10.8548
529 1 -1.1104 3.76041 10.675 12.5029
530 1 -1.1104 3.89757 16.3428 12.4511
531 1 -1.1104 3.82587 10.4689 9.64871
532 1 -1.1104 3.98365 16.201 9.48704
518 1 -1.1104 6.54793 10.3917 9.56979
519 1 -1.1104 6.78322 16.106 9.5935
515 1 -1.1104 6.74155 16.1506 12.3213
503 1 -1.1104 6.62867 13.3785 12.3477
557 1 -1.1104 12.2324 10.8081 12.3236
446 2 2.2208 -0.377894 20.682 2.45289
580 2 2.2208 13.7965 9.3358 10.9542
550 2 2.2208 8.10359 12.209 8.09472
548 1 -1.1104 9.40688 16.2603 12.2317
546 1 -1.1104 9.58486 16.3554 9.57422
567 1 -1.1104 9.48472 19.112 12.1424
556 1 -1.1104 12.2374 16.3756 12.1421
514 1 -1.1104 6.66529 10.5907 12.477
420 1 -1.1104 6.76615 16.3809 6.73746
507 1 -1.1104 6.71524 13.1014 9.67379
504 1 -1.1104 6.56659 19.0691 12.2581
508 1 -1.1104 6.71011 19.1127 9.35875
570 2 2.2208 10.8978 12.0887 10.8358
566 1 -1.1104 9.48958 13.5849 9.54976
553 2 2.2208 8.08972 14.9088 11.0212
558 2 2.2208 10.9826 20.7382 8.09495
549 1 -1.1104 9.46143 10.8897 12.3012
572 1 -1.1104 12.3913 13.5101 12.2179
555 1 -1.1104 12.2212 10.705 9.45621
565 1 -1.1104 9.58414 19.3102 9.40303
573 1 -1.1104 12.2446 19.1517 12.2954
552 2 2.2208 8.09705 20.5006 10.9626
551 1 -1.1104 12.2435 16.4266 9.50218
563 1 -1.1104 12.2495 19.1778 9.4454
564 1 -1.1104 12.4674 13.5556 9.4876
560 1 -1.1104 12.4271 19.1916 6.61637
466 1 -1.1104 12.2826 16.4629 6.70716
480 1 -1.1104 9.55807 10.5455 6.63667
561 1 -1.1104 9.39374 19.2991 6.66872
569 2 2.2208 8.19851 17.7636 8.06874
547 1 -1.1104 9.38546 10.744 9.46685
544 2 2.2208 5.17521 20.4044 13.7193
577 2 2.2208 10.9707 14.7122 13.5904
441 2 2.2208 2.45354 20.7838 -0.296727
533 2 2.2208 2.41488 17.6379 13.8015
450 2 2.2208 -0.423906 17.8492 -0.219551
444 2 2.2208 5.18215 17.8539 -0.253803
585 2 2.2208 10.8036 20.752 13.6465
586 2 2.2208 5.26631 11.9943 16.7005
587 2 2.2208 5.1683 17.7452 16.6657
588 1 -1.1104 0.848853 13.5321 17.9805
589 1 -1.1104 0.816762 19.0885 18.0678
592 1 -1.1104 1.08869 13.4433 15.245
593 1 -1.1104 0.74849 19.1065 15.3792
596 2 2.2208 5.13218 9.11091 19.266
597 2 2.2208 5.28707 14.8395 19.3814
598 2 2.2208 5.13629 20.3102 19.5411
599 1 -1.1104 0.906665 10.7268 17.8762
600 1 -1.1104 1.21797 16.187 18.1124
603 1 -1.1104 0.832968 10.6518 15.098
604 1 -1.1104 0.991448 16.2357 15.1747
607 2 2.2208 2.50185 12.1482 19.3801
608 2 2.2208 2.33682 17.6558 19.4318
609 1 -1.1104 3.9152 13.4331 17.9996
610 1 -1.1104 3.8621 19.0983 17.8621
611 1 -1.1104 3.96471 13.3013 15.2095
612 1 -1.1104 3.51249 19.0703 15.1436
613 2 2.2208 2.30345 9.25775 16.4761
614 2 2.2208 2.45717 14.7992 16.5819
615 2 2.2208 2.24071 20.4507 16.4921
616 1 -1.1104 3.81923 10.5274 17.9739
617 1 -1.1104 3.95449 16.0726 18.0415
618 1 -1.1104 3.80147 10.4353 15.235
619 1 -1.1104 3.94024 16.1983 15.1268
605 1 -1.1104 6.52253 10.5751 15.267
606 1 -1.1104 6.53383 16.2736 15.1675
653 2 2.2208 13.4482 12.1808 19.2425
622 2 2.2208 -0.426055 14.9288 19.3463
601 1 -1.1104 6.71713 10.7217 18.1222
594 1 -1.1104 6.64996 13.238 15.1845
623 2 2.2208 -0.481999 12.0927 16.5371
590 1 -1.1104 6.54854 13.5415 17.9721
664 1 -1.1104 6.72472 10.7772 21.0537
743 2 2.2208 13.5874 9.28465 22.0912
624 2 2.2208 -0.316066 9.37545 19.3923
654 2 2.2208 13.5413 17.7816 19.315
708 2 2.2208 -0.504851 12.2326 22.1414
535 2 2.2208 5.31657 9.16983 13.6994
705 2 2.2208 -0.425733 14.9367 25.1054
595 1 -1.1104 6.42319 19.0225 15.0312
591 1 -1.1104 6.47215 19.3241 18.1185
602 1 -1.1104 6.65566 16.5105 18.0445
485 2 2.2208 7.97855 20.5414 27.7483
625 2 2.2208 10.7574 12.0165 16.4197
626 2 2.2208 10.8788 17.8288 16.4425
627 1 -1.1104 12.2635 13.4588 17.8889
628 1 -1.1104 11.9981 19.4665 17.7559
629 1 -1.1104 12.2111 13.6573 15.0512
630 1 -1.1104 12.1956 19.0946 15.0442
632 2 2.2208 10.9153 9.25785 19.1334
633 2 2.2208 10.7551 14.9392 19.3226
634 2 2.2208 10.8165 20.6387 19.2076
635 1 -1.1104 12.3533 10.6831 17.6887
636 1 -1.1104 12.1591 16.3102 17.9519
637 1 -1.1104 12.2134 10.7851 15.0428
638 1 -1.1104 12.1034 16.2957 15.0639
639 2 2.2208 8.05942 12.0622 19.2774
640 2 2.2208 8.02571 17.7684 19.4122
641 1 -1.1104 9.46569 13.4217 17.836
642 1 -1.1104 9.31195 19.0764 17.8302
643 1 -1.1104 9.49241 13.6262 14.9369
644 1 -1.1104 9.24262 19.3054 15.0284
646 2 2.2208 8.04419 9.16609 16.587
647 2 2.2208 7.92663 14.9659 16.6364
648 2 2.2208 7.92156 20.4304 16.6512
649 1 -1.1104 9.47548 10.4897 17.9877
650 1 -1.1104 9.37571 16.2809 18.1251
651 1 -1.1104 9.32889 10.677 15.3175
652 1 -1.1104 9.2299 16.4205 15.2618
742 2 2.2208 13.7796 17.7618 24.9693
583 2 2.2208 13.7502 17.8197 13.7074
726 1 -1.1104 12.4051 10.8175 20.6214
661 1 -1.1104 6.55279 19.0835 20.8272
730 1 -1.1104 9.45205 13.5038 20.5594
732 1 -1.1104 9.67854 16.2704 20.9387
645 1 -1.1104 9.31014 19.264 20.7345
745 2 2.2208 13.5776 20.6109 22.1068
721 1 -1.1104 12.2956 10.8149 26.2303
659 1 -1.1104 1.14648 19.1459 21.0024
669 1 -1.1104 3.80592 16.2993 20.6948
667 1 -1.1104 3.86458 18.8768 20.8739
663 1 -1.1104 0.925896 16.4495 20.7878
662 1 -1.1104 1.08685 10.8862 20.6705
666 1 -1.1104 3.7699 13.5274 20.7429
668 1 -1.1104 3.89218 10.6386 20.8478
658 1 -1.1104 0.947653 13.6879 20.7469
670 2 2.2208 5.2701 12.0883 22.2112
671 2 2.2208 5.20971 17.6482 22.207
672 1 -1.1104 0.815478 13.7814 23.5474
673 1 -1.1104 0.865581 19.1275 23.8449
676 1 -1.1104 0.990977 13.6855 26.2543
677 1 -1.1104 1.05213 19.2226 26.4616
680 2 2.2208 5.31926 9.10063 25.0048
681 2 2.2208 5.18405 14.9876 25.0729
682 2 2.2208 5.20609 20.5293 24.9792
683 1 -1.1104 0.945831 10.8773 23.5772
684 1 -1.1104 1.0235 16.4107 23.6329
687 1 -1.1104 1.22261 10.7078 26.3833
688 1 -1.1104 1.02338 16.3744 26.6297
691 2 2.2208 2.36238 12.1779 24.9271
692 2 2.2208 2.35209 17.7409 25.0076
693 1 -1.1104 3.83202 13.536 23.7528
694 1 -1.1104 3.84801 19.1214 23.6212
695 1 -1.1104 3.64903 13.5109 26.4492
696 1 -1.1104 3.88164 19.2343 26.3335
697 2 2.2208 2.42277 9.40131 22.222
698 2 2.2208 2.51119 15.0453 22.2792
699 2 2.2208 2.33257 20.453 22.2436
700 1 -1.1104 3.79597 10.6239 23.7541
701 1 -1.1104 3.81663 16.3667 23.5963
702 1 -1.1104 4.0614 10.4307 26.4412
703 1 -1.1104 3.75521 16.3591 26.4661
679 1 -1.1104 6.69666 19.1988 26.3499
690 1 -1.1104 6.647 16.4376 26.3367
678 1 -1.1104 6.52541 13.371 26.486
689 1 -1.1104 6.85571 10.694 26.5865
685 1 -1.1104 6.61709 10.6773 23.8014
675 1 -1.1104 6.59357 19.2481 23.6262
686 1 -1.1104 6.61341 16.2945 23.6507
660 1 -1.1104 6.40077 13.408 20.7251
735 1 -1.1104 9.44895 13.4365 23.4783
739 2 2.2208 10.9064 17.8098 22.1639
719 1 -1.1104 12.469 16.5742 26.4779
729 1 -1.1104 12.3636 10.4431 23.4285
665 1 -1.1104 6.69445 16.1938 20.8497
733 1 -1.1104 9.39648 13.6031 26.3381
723 1 -1.1104 12.2477 13.5555 26.28
674 1 -1.1104 6.67622 13.6022 23.544
737 2 2.2208 8.05524 12.1381 24.8768
734 1 -1.1104 9.50287 19.2465 23.5437
740 1 -1.1104 12.4219 13.2799 23.3536
713 2 2.2208 7.92023 20.6742 22.1762
736 2 2.2208 8.03965 17.6918 24.9508
725 1 -1.1104 12.3584 16.2793 23.5347
714 2 2.2208 8.19203 14.9938 22.2649
720 1 -1.1104 12.2651 19.3165 26.2559
715 2 2.2208 8.09118 9.23794 22.035
724 2 2.2208 10.9421 15.0161 24.9095
738 2 2.2208 10.7487 12.1465 22.1034
718 2 2.2208 10.9389 20.6091 25.0234
709 1 -1.1104 9.5921 16.4387 26.4609
710 1 -1.1104 9.54105 10.6901 26.3194
716 1 -1.1104 9.48901 19.3023 26.3979
731 1 -1.1104 9.42521 10.7405 20.6919
722 1 -1.1104 12.2156 13.5789 20.639
631 1 -1.1104 12.141 19.0826 20.6541
717 2 2.2208 10.7766 9.24649 24.8476
727 1 -1.1104 12.3726 16.3505 20.6387
711 1 -1.1104 9.38571 16.4121 23.5168
712 1 -1.1104 9.4651 10.6344 23.4525
728 1 -1.1104 12.3057 19.0422 23.5387
706 2 2.2208 -0.387839 9.31171 24.9062
656 2 2.2208 13.5404 15.0924 16.4507
541 2 2.2208 -0.460505 14.842 13.6573
579 2 2.2208 7.89939 12.1012 13.7706
576 2 2.2208 7.97471 17.7078 13.6394
536 2 2.2208 2.49365 12.0241 13.8402
493 2 2.2208 13.6409 9.34861 27.7038
534 2 2.2208 5.31963 14.8484 13.715
545 2 2.2208 -0.459134 20.364 13.8803
489 2 2.2208 10.8336 12.1015 27.6351
487 2 2.2208 8.11574 9.42538 27.7762
578 2 2.2208 10.9312 9.36403 13.6813
486 2 2.2208 8.02149 15.0112 27.9059
488 2 2.2208 10.9176 17.8129 27.7582
746 2 2.2208 5.28608 23.349 5.21357
748 2 2.2208 5.34816 28.9262 5.25415
749 1 -1.1104 1.06808 24.8236 0.9022
750 1 -1.1104 1.00898 30.3838 0.953947
753 1 -1.1104 1.05618 24.7251 4.02095
754 1 -1.1104 1.03893 30.4394 3.74553
757 2 2.2208 5.35829 26.112 2.24657
758 2 2.2208 5.18828 31.7536 2.46245
759 1 -1.1104 0.921568 22.0361 1.11519
760 1 -1.1104 1.0278 27.614 1.01569
761 1 -1.1104 1.03981 33.103 0.979493
765 1 -1.1104 1.16156 22.1183 3.76684
766 1 -1.1104 1.12784 27.4481 3.64387
767 1 -1.1104 0.95447 33.2846 3.94522
771 2 2.2208 2.56738 23.4003 2.38513
772 2 2.2208 2.35158 28.9724 2.34721
773 1 -1.1104 3.90619 24.8188 1.00455
774 1 -1.1104 3.73566 30.5187 1.18293
775 1 -1.1104 4.04581 24.7343 3.60026
776 1 -1.1104 3.90767 30.3221 3.93854
778 2 2.2208 2.439 26.1554 5.21713
779 2 2.2208 2.5246 31.8299 5.24329
780 1 -1.1104 3.96165 22.0907 0.990853
781 1 -1.1104 3.92951 27.6911 1.14725
782 1 -1.1104 3.89688 33.284 0.989399
783 1 -1.1104 3.76631 22.0219 3.78451
784 1 -1.1104 3.91706 27.4798 4.04019
785 1 -1.1104 3.90872 33.0698 3.84075
927 2 2.2208 13.7819 23.4562 7.98792
833 1 -1.1104 0.823809 27.7349 6.52191
788 2 2.2208 -0.306666 28.8801 -0.416713
763 1 -1.1104 6.65563 27.5275 0.933426
842 1 -1.1104 4.1322 33.1444 6.4842
747 2 2.2208 5.19927 28.999 -0.291238
787 2 2.2208 -0.414417 23.4047 5.21663
882 2 2.2208 -0.364081 23.427 10.7477
834 1 -1.1104 0.985819 33.1941 6.65437
836 1 -1.1104 6.81158 27.7067 6.49292
813 2 2.2208 8.08892 26.3211 -0.322795
770 1 -1.1104 6.72733 33.2473 3.74222
752 1 -1.1104 6.71794 30.2913 1.02875
751 1 -1.1104 6.7674 24.794 0.813311
768 1 -1.1104 6.53102 21.8558 3.94676
762 1 -1.1104 6.83076 21.9057 1.23402
756 1 -1.1104 6.60024 30.5259 3.83481
764 1 -1.1104 6.63674 33.1479 0.960522
755 1 -1.1104 6.83831 24.9179 3.6728
769 1 -1.1104 6.85672 27.8449 3.74959
793 2 2.2208 10.8878 23.3836 5.3192
794 2 2.2208 11.0902 28.9665 5.31527
795 1 -1.1104 12.4714 24.8209 1.04189
796 1 -1.1104 12.3257 30.4003 0.842095
797 1 -1.1104 12.4113 24.794 4.02004
798 1 -1.1104 12.3447 30.3777 3.76991
799 2 2.2208 11.0125 26.1473 2.42649
800 2 2.2208 11.0477 31.8247 2.43076
801 1 -1.1104 12.1288 22.265 1.10112
802 1 -1.1104 12.1843 27.6105 1.13332
803 1 -1.1104 12.5374 33.0749 1.09045
804 1 -1.1104 12.3739 22.0703 3.93478
805 1 -1.1104 12.381 27.4074 3.90762
806 1 -1.1104 12.3146 33.2495 3.79089
807 2 2.2208 8.05584 23.4031 2.34892
808 2 2.2208 8.1933 29.06 2.52832
809 1 -1.1104 9.61875 24.8739 0.951569
810 1 -1.1104 9.53968 30.5426 0.973406
811 1 -1.1104 9.59224 24.9377 3.7026
812 1 -1.1104 9.5331 30.4031 3.85058
814 2 2.2208 8.13221 26.1379 5.2168
815 2 2.2208 8.09963 31.7029 5.17595
816 1 -1.1104 9.42916 21.8821 1.09165
817 1 -1.1104 9.45174 27.7081 1.07331
818 1 -1.1104 9.52954 33.3687 0.979977
819 1 -1.1104 9.55005 22.1815 3.80876
820 1 -1.1104 9.68207 27.5676 3.97853
821 1 -1.1104 9.50842 33.1712 3.69009
1113 2 2.2208 8.01862 31.7492 -0.401204
885 2 2.2208 2.47206 23.0876 13.6544
909 1 -1.1104 9.56639 24.8137 9.49128
899 1 -1.1104 12.3315 33.3982 6.6314
896 1 -1.1104 12.4372 30.6201 6.63203
924 2 2.2208 8.07421 23.5051 8.12217
889 1 -1.1104 9.43362 33.1309 12.3069
894 1 -1.1104 9.38671 24.5773 12.2862
840 1 -1.1104 4.04215 21.9001 6.71151
838 1 -1.1104 3.85215 24.7457 6.4622
841 1 -1.1104 3.96519 27.4543 6.6129
839 1 -1.1104 3.84032 30.0926 6.64272
829 1 -1.1104 0.969714 30.562 6.54906
832 1 -1.1104 1.20656 21.9514 6.7216
828 1 -1.1104 1.0629 24.9534 6.71503
844 2 2.2208 5.2191 23.2623 10.7717
845 2 2.2208 5.34662 29.0777 10.7865
846 1 -1.1104 0.926117 24.8407 12.2027
847 1 -1.1104 1.18843 30.5382 12.2318
850 1 -1.1104 0.980849 24.6288 9.46395
851 1 -1.1104 1.10798 30.4929 9.34827
854 2 2.2208 5.19137 26.097 7.97113
855 2 2.2208 5.29567 31.8812 7.96401
856 1 -1.1104 0.923044 21.8687 12.3514
857 1 -1.1104 1.16369 27.8529 12.0825
858 1 -1.1104 1.08065 33.2911 12.2266
862 1 -1.1104 1.08323 21.7576 9.5633
863 1 -1.1104 1.11404 27.4902 9.4413
864 1 -1.1104 1.0388 33.2318 9.47559
868 2 2.2208 2.57659 23.4372 7.91902