LAMMPS (29 Oct 2020)
OMP_NUM_THREADS environment is not set. Defaulting to 1 thread. (../comm.cpp:94)
  using 1 OpenMP thread(s) per MPI task
OMP_NUM_THREADS environment is not set. Defaulting to 1 thread. (../comm.cpp:94)
  using 1 OpenMP thread(s) per MPI task
Reading data file ...
  orthogonal box = (-0.40626433 -4.9971621 -0.41693556) to (27.746264 333.07716 27.756936)
  2 by 13 by 2 MPI processor grid
  reading atoms ...
  18000 atoms
  reading velocities ...
  18000 velocities
Finding 1-2 1-3 1-4 neighbors ...
  special bond factors lj:    0.0      0.0      0.0     
  special bond factors coul:  0.0      0.0      0.0     
     0 = max # of 1-2 neighbors
     0 = max # of 1-3 neighbors
     0 = max # of 1-4 neighbors
     1 = max # of special neighbors
  special bonds CPU = 0.003 seconds
  read_data CPU = 0.066 seconds
Setting atom values ...
  12000 settings made for charge
Setting atom values ...
  6000 settings made for charge
PPPM initialization ...
  using 12-bit tables for long-range coulomb (../kspace.cpp:328)
  G vector (1/distance) = 0.29862577
  grid = 40 240 40
  stencil order = 5
  estimated absolute RMS force accuracy = 0.00015944037
  estimated relative force accuracy = 1.1072521e-05
  using single precision MKL FFT
  3d grid and FFT values/proc = 15000 7600
Neighbor list info ...
  update every 1 steps, delay 0 steps, check yes
  max neighbors/atom: 2000, page size: 100000
  master list distance cutoff = 11.3
  ghost atom cutoff = 11.3
  binsize = 5.65, bins = 5 60 5
  2 neighbor lists, perpetual/occasional/extra = 2 0 0
  (1) pair coul/long, perpetual
      attributes: half, newton on
      pair build: half/bin/newton
      stencil: half/bin/3d/newton
      bin: standard
  (2) pair eam/alloy, perpetual, copy from (1)
      attributes: half, newton on
      pair build: copy
      stencil: none
      bin: none
Setting up Verlet run ...
  Unit style    : metal
  Current step  : 0
  Time step     : 0.001
Per MPI rank memory allocation (min/avg/max) = 8.155 | 8.178 | 8.190 Mbytes
Step Temp E_pair E_mol TotEng Press 
       0          600   -234499.82            0   -233103.89   -696.84591 
  100000     602.4961   -234510.48            0   -233108.74    -717.8522 
Loop time of 617.802 on 52 procs for 100000 steps with 18000 atoms

Performance: 13.985 ns/day, 1.716 hours/ns, 161.864 timesteps/s
99.9% CPU use with 52 MPI tasks x 1 OpenMP threads

MPI task timing breakdown:
Section |  min time  |  avg time  |  max time  |%varavg| %total
---------------------------------------------------------------
Pair    | 403.15     | 412.61     | 423.92     |  24.7 | 66.79
Bond    | 0.0062918  | 0.010258   | 0.01494    |   1.7 |  0.00
Kspace  | 140.84     | 152.43     | 163.15     |  45.7 | 24.67
Neigh   | 31.006     | 32.639     | 35.9       |  19.9 |  5.28
Comm    | 14.161     | 15.133     | 17.343     |  22.9 |  2.45
Output  | 5.8226e-05 | 6.3621e-05 | 0.00027484 |   0.0 |  0.00
Modify  | 2.3441     | 3.635      | 5.7882     |  61.4 |  0.59
Other   |            | 1.337      |            |       |  0.22

Nlocal:        346.154 ave         366 max         332 min
Histogram: 6 4 9 7 6 8 4 3 3 2
Nghost:        4105.21 ave        4204 max        4032 min
Histogram: 6 7 6 4 9 5 7 5 1 2
Neighs:        69810.6 ave       74259 max       66565 min
Histogram: 4 8 10 5 5 9 2 4 2 3

Total # of neighbors = 3630151
Ave neighs/atom = 201.67506
Ave special neighs/atom = 0.0000000
Neighbor list builds = 16236
Dangerous builds = 0
12000 atoms in group oxygen
PPPM initialization ...
  using 12-bit tables for long-range coulomb (../kspace.cpp:328)
  G vector (1/distance) = 0.29862577
  grid = 40 240 40
  stencil order = 5
  estimated absolute RMS force accuracy = 0.00015944037
  estimated relative force accuracy = 1.1072521e-05
  using single precision MKL FFT
  3d grid and FFT values/proc = 15000 7600
Setting up Verlet run ...
  Unit style    : metal
  Current step  : 0
  Time step     : 0.001
Per MPI rank memory allocation (min/avg/max) = 8.406 | 8.429 | 8.441 Mbytes
Step f_2 Temp v_Tdiff v_deltaT 
       0            0     602.4961            0            0 
  100000    658.72922     607.6281  0.024318657    282.33735 
  200000    1296.8948    608.69949  0.027909939     324.0318 
  300000    1933.6291    609.77567  0.027821445     323.0044 
  400000    2569.6908    614.45387  0.028120479    326.47615 
  500000    3206.5875    615.51875  0.027963026    324.64813 
  600000    3845.8959    611.52806  0.027917747    324.12245 
  700000    4486.1017    611.30388  0.027918083    324.12635 
  800000    5130.6841    611.22592  0.027580258    320.20424 
  900000    5773.9561    610.76914   0.02723318    316.17469 
 1000000    6415.6245    614.81966  0.027159113    315.31478 
Loop time of 6147 on 52 procs for 1000000 steps with 18000 atoms

Performance: 14.056 ns/day, 1.707 hours/ns, 162.681 timesteps/s
99.9% CPU use with 52 MPI tasks x 1 OpenMP threads

MPI task timing breakdown:
Section |  min time  |  avg time  |  max time  |%varavg| %total
---------------------------------------------------------------
Pair    | 3969.5     | 4063.4     | 4186.9     |  73.7 | 66.10
Bond    | 0.061925   | 0.10353    | 0.15473    |   6.1 |  0.00
Kspace  | 1410.4     | 1546.6     | 1636.2     | 132.7 | 25.16
Neigh   | 323.86     | 339.74     | 366.81     |  57.4 |  5.53
Comm    | 142.54     | 152.88     | 178.5      |  76.4 |  2.49
Output  | 0.00099877 | 0.0010701  | 0.0023448  |   0.6 |  0.00
Modify  | 5.5718     | 6.037      | 6.5025     |  10.2 |  0.10
Other   |            | 38.17      |            |       |  0.62

Nlocal:        346.154 ave         368 max         332 min
Histogram: 4 12 7 6 2 11 3 3 2 2
Nghost:        4085.90 ave        4211 max        3977 min
Histogram: 1 3 14 5 6 8 7 3 3 2
Neighs:        69818.9 ave       75873 max       66600 min
Histogram: 7 12 9 3 5 8 3 3 1 1

Total # of neighbors = 3630585
Ave neighs/atom = 201.69917
Ave special neighs/atom = 0.0000000
Neighbor list builds = 169422
Dangerous builds = 0
Total wall time: 1:52:45
