ITEM: TIMESTEP
50000
ITEM: NUMBER OF ATOMS
17820
ITEM: BOX BOUNDS pp pp pp
-3.6806000733968230e-01 2.7708060007339913e+01
-4.3992173204874305e+00 3.3247921732048724e+02
-3.6826722349691471e-01 2.7708267223497064e+01
ITEM: ATOMS id type q x y z
1 2 2.2208 5.25991 1.25916 5.19522
2 1 -1.1104 1.01554 -2.99655 1.01627
3 1 -1.1104 0.894498 2.48388 1.05225
6 1 -1.1104 0.948196 -2.91683 3.63249
7 1 -1.1104 0.809302 2.52626 3.78579
10 1 -1.1104 0.927685 -0.205218 0.795619
12 2 2.2208 5.18739 -1.72996 2.42824
13 2 2.2208 5.37105 4.00222 2.4338
14 1 -1.1104 1.17619 -0.166267 3.79378
16 1 -1.1104 3.79336 -3.06841 0.941854
17 1 -1.1104 3.70634 2.45722 0.969291
18 2 2.2208 2.47024 1.12979 2.36886
19 1 -1.1104 3.82772 -3.05297 3.85061
20 1 -1.1104 3.72647 2.68104 3.80963
21 2 2.2208 2.54678 -1.63139 5.217
22 2 2.2208 2.31744 4.01741 5.17042
23 1 -1.1104 3.77405 -0.35269 0.963067
24 1 -1.1104 3.937 -0.300802 3.75441
8443 2 2.2208 7.89609 -4.60366 2.40317
167 1 -1.1104 0.916275 2.55051 6.55631
166 1 -1.1104 0.980928 -3.13869 6.36794
173 1 -1.1104 3.74345 2.46202 6.46988
172 1 -1.1104 3.62338 -3.13885 6.6215
9123 2 2.2208 13.5491 18.0353 8.07762
4 1 -1.1104 6.70755 -3.18733 0.906153
8449 2 2.2208 10.684 -4.54996 10.7596
539 2 2.2208 10.8863 20.791 13.6735
174 1 -1.1104 3.73068 -0.28706 6.75911
8930 2 2.2208 13.539 15.1818 5.12412
169 1 -1.1104 6.60244 2.56995 6.61032
5 1 -1.1104 6.75056 2.62822 0.955166
8 1 -1.1104 6.58228 -3.00763 3.76451
9 1 -1.1104 6.5286 2.62353 3.79976
11 1 -1.1104 6.58415 -0.384872 1.026
15 1 -1.1104 6.67959 -0.17213 3.8697
31 2 2.2208 10.753 1.22256 5.19476
32 1 -1.1104 12.1924 -3.16637 0.891476
33 1 -1.1104 12.2183 2.41777 1.13284
34 1 -1.1104 12.0424 -3.14692 3.86488
35 1 -1.1104 12.4144 2.5017 3.87332
36 1 -1.1104 12.2961 -0.403304 0.844367
37 2 2.2208 10.8489 -1.80526 2.35077
38 2 2.2208 11.0084 4.00911 2.50377
39 1 -1.1104 12.2439 -0.353699 3.74129
40 1 -1.1104 9.36322 -3.12496 1.07964
41 1 -1.1104 9.53002 2.54129 1.05495
42 2 2.2208 8.00866 1.0917 2.43855
43 1 -1.1104 9.2793 -3.22125 3.76307
44 1 -1.1104 9.43459 2.61168 3.95973
45 2 2.2208 8.03004 -1.68761 5.20734
46 2 2.2208 8.05398 3.85965 5.25876
47 1 -1.1104 9.33172 -0.409143 1.04661
48 1 -1.1104 9.58358 -0.272011 3.85579
171 1 -1.1104 6.61041 -0.120483 6.59215
81 2 2.2208 -0.495647 6.68755 5.27176
206 1 -1.1104 12.0443 2.55863 6.55386
210 1 -1.1104 9.33217 -0.382045 6.70081
168 1 -1.1104 6.57653 -3.03511 6.51294
8448 2 2.2208 7.97966 -4.62233 8.01814
9124 2 2.2208 -0.577854 3.8579 2.38128
83 2 2.2208 -0.361082 12.3328 5.27253
29 2 2.2208 -0.563291 12.2534 10.9488
54 2 2.2208 5.14224 6.84025 5.11748
55 2 2.2208 5.14375 12.4001 5.26478
56 1 -1.1104 1.09514 8.2719 1.11999
58 1 -1.1104 0.774715 8.11007 3.81256
60 1 -1.1104 1.02393 5.34242 1.06988
61 1 -1.1104 1.04814 11.0016 1.04158
66 2 2.2208 5.1532 9.64087 2.36939
67 1 -1.1104 0.911153 5.32646 3.76544
68 1 -1.1104 0.910339 10.9898 3.78151
71 1 -1.1104 3.89386 8.23036 0.968534
72 2 2.2208 2.31756 6.79516 2.42243
73 2 2.2208 2.36037 12.3611 2.59419
74 1 -1.1104 3.56786 8.17424 3.82632
75 2 2.2208 2.25142 9.49684 5.23165
76 1 -1.1104 3.7524 5.49597 0.914802
77 1 -1.1104 3.74596 11.0961 1.04246
79 1 -1.1104 3.86875 5.47085 3.75315
80 1 -1.1104 3.69544 10.9228 3.83683
59 1 -1.1104 6.52998 8.2263 3.7761
236 1 -1.1104 0.926589 5.34384 6.63171
64 1 -1.1104 6.5529 11.0105 1.11519
381 2 2.2208 -0.314941 -1.63085 13.4591
63 1 -1.1104 6.68646 5.39805 1.06273
57 1 -1.1104 6.70262 8.28186 0.960935
9090 2 2.2208 13.792 20.6949 10.9519
62 1 -1.1104 0.907597 10.821 6.74782
238 1 -1.1104 3.70923 7.99226 6.4938
82 2 2.2208 -0.533714 9.5268 2.53048
326 2 2.2208 8.0548 6.77932 13.717
70 1 -1.1104 6.44371 10.9923 3.94973
237 1 -1.1104 6.66565 5.29598 6.60895
69 1 -1.1104 6.77655 5.36557 3.88038
84 2 2.2208 10.7179 6.7782 5.23194
85 2 2.2208 10.7833 12.4818 5.21642
86 1 -1.1104 12.2126 8.17665 1.02271
87 1 -1.1104 12.1296 8.14443 3.93609
88 1 -1.1104 12.3718 5.36904 1.02976
89 1 -1.1104 12.1946 11.0209 0.924071
91 2 2.2208 10.7715 9.40224 2.47663
92 1 -1.1104 12.2525 5.29502 3.82903
93 1 -1.1104 12.2126 10.915 3.77246
94 1 -1.1104 9.40644 8.0298 0.948478
95 2 2.2208 8.02752 6.78249 2.36911
96 2 2.2208 8.11248 12.3538 2.4532
97 1 -1.1104 9.31994 8.06594 3.80382
98 2 2.2208 7.89294 9.6289 5.28617
99 1 -1.1104 9.64681 5.4083 1.21046
100 1 -1.1104 9.44662 10.759 1.0387
102 1 -1.1104 9.48203 5.26953 4.00805
103 1 -1.1104 9.33328 11.0856 3.82233
267 1 -1.1104 9.51291 7.98988 6.60048
65 1 -1.1104 6.48909 10.9788 6.82515
269 1 -1.1104 9.33855 5.28663 6.61145
9122 2 2.2208 -0.403013 1.10815 5.18948
8862 2 2.2208 13.6673 17.9271 2.4712
106 2 2.2208 5.33039 18.0876 5.25722
107 1 -1.1104 0.962043 13.7644 1.00425
109 1 -1.1104 1.07042 19.2824 1.10129
113 1 -1.1104 0.937144 13.7548 3.81211
114 1 -1.1104 0.987798 19.1972 3.92399
116 1 -1.1104 0.869596 16.5782 1.21388
119 2 2.2208 5.18102 15.2747 2.38393
120 2 2.2208 5.18163 20.9373 2.38831
121 1 -1.1104 1.06048 16.6078 3.88518
123 1 -1.1104 3.6738 13.7248 1.09889
125 1 -1.1104 3.86378 19.4372 1.02417
127 2 2.2208 2.33843 17.9006 2.55528
128 1 -1.1104 3.75614 13.7679 3.97619
129 1 -1.1104 3.91554 19.4994 3.96319
130 2 2.2208 2.34203 15.2127 5.24542
131 2 2.2208 2.37084 20.695 5.22377
132 1 -1.1104 3.73944 16.5918 0.989283
134 1 -1.1104 3.85689 16.6688 3.93527
108 1 -1.1104 1.14809 13.6203 6.63604
8837 2 2.2208 13.5822 3.86103 5.30576
117 1 -1.1104 1.02084 16.3335 6.73847
126 1 -1.1104 3.84584 19.5273 6.67589
302 1 -1.1104 0.945509 19.3091 6.66237
138 1 -1.1104 6.70365 19.437 1.06211
115 1 -1.1104 6.56135 13.7383 3.75091
133 1 -1.1104 3.79132 16.5991 6.64615
124 1 -1.1104 3.91033 13.7663 6.6761
111 1 -1.1104 6.80605 13.807 6.60572
514 2 2.2208 5.11415 20.8085 13.6111
143 1 -1.1104 12.2408 13.6545 6.68481
110 1 -1.1104 6.70432 13.9334 1.04855
139 1 -1.1104 6.66615 19.3861 3.70964
163 1 -1.1104 9.41829 16.7389 6.58553
145 1 -1.1104 12.2367 19.3207 6.56183
122 1 -1.1104 6.60543 16.5415 3.80763
140 1 -1.1104 6.64503 16.7146 1.06805
141 2 2.2208 10.7946 18.0158 5.15816
142 1 -1.1104 12.3115 13.7364 0.87813
144 1 -1.1104 12.3338 19.395 1.04006
146 1 -1.1104 12.1103 13.6401 3.67094
147 1 -1.1104 12.416 19.293 3.91994
148 1 -1.1104 12.2291 16.5942 1.06074
150 2 2.2208 10.7961 15.063 2.25872
151 2 2.2208 10.8809 20.762 2.39322
152 1 -1.1104 12.1922 16.4541 3.89394
153 1 -1.1104 9.42144 13.8002 0.941527
155 1 -1.1104 9.2634 19.3333 0.947903
157 2 2.2208 7.98687 18.1097 2.39962
158 1 -1.1104 9.48942 13.8882 3.67891
159 1 -1.1104 9.39885 19.323 3.79865
160 2 2.2208 8.06029 15.2506 5.04568
161 2 2.2208 8.03669 20.7864 5.08543
162 1 -1.1104 9.33427 16.5897 0.874522
164 1 -1.1104 9.51007 16.6442 3.65801
149 1 -1.1104 12.1329 16.5228 6.68038
112 1 -1.1104 6.72241 19.3736 6.51138
118 1 -1.1104 6.56805 16.5778 6.64269
154 1 -1.1104 9.44859 13.7757 6.52104
170 1 -1.1104 1.02018 -0.403164 6.69483
30 2 2.2208 13.6498 9.5358 10.934
312 2 2.2208 -0.357281 17.9349 11.008
8964 2 2.2208 13.6901 3.95171 10.8477
175 2 2.2208 5.2221 1.20258 10.7876
176 1 -1.1104 0.959735 -3.05694 12.0802
177 1 -1.1104 0.990938 2.26069 12.0178
180 1 -1.1104 0.976117 -3.11764 9.39738
181 1 -1.1104 0.877237 2.47328 9.27123
184 1 -1.1104 0.916083 -0.316598 12.1947
186 2 2.2208 5.12105 -1.64463 8.0116
188 1 -1.1104 1.10965 -0.336329 9.45833
190 1 -1.1104 3.72318 -3.07063 12.2381
191 1 -1.1104 4.00813 2.53339 12.1714
192 2 2.2208 2.31765 1.08344 8.05315
193 1 -1.1104 3.78455 -3.1773 9.38333
194 1 -1.1104 3.84434 2.37974 9.35374
195 2 2.2208 2.46068 -1.77186 10.8598
197 1 -1.1104 3.82193 -0.294156 12.3084
198 1 -1.1104 3.99332 -0.455448 9.51686
196 2 2.2208 2.43777 3.92494 10.8213
201 2 2.2208 -0.262536 0.967054 10.6577
321 2 2.2208 7.9535 1.15546 13.6574
178 1 -1.1104 6.56616 -2.9662 12.3698
179 1 -1.1104 6.7432 2.57254 12.3904
187 2 2.2208 5.22622 3.93378 7.89906
317 2 2.2208 7.89699 15.1558 10.7736
205 1 -1.1104 12.0334 -3.23388 6.6369
207 1 -1.1104 12.1903 -0.230444 6.57622
189 1 -1.1104 6.59625 -0.338618 9.41327
182 1 -1.1104 6.50659 -3.07247 9.28124
183 1 -1.1104 6.59018 2.57167 9.41965
209 1 -1.1104 9.34262 2.54175 6.8465
185 1 -1.1104 6.48516 -0.256061 12.206
53 2 2.2208 13.5624 9.61823 5.19804
208 1 -1.1104 9.27657 -3.15372 6.61041
211 2 2.2208 10.9307 1.03253 10.9018
212 1 -1.1104 12.1824 -3.02292 12.3511
213 1 -1.1104 12.216 2.68582 12.1942
214 1 -1.1104 12.1008 -3.12124 9.48753
215 1 -1.1104 12.1952 2.50869 9.34139
216 1 -1.1104 12.2051 -0.40258 12.2196
217 2 2.2208 10.7708 -1.73716 8.04707
218 2 2.2208 10.7205 3.8559 8.15637
219 1 -1.1104 12.293 -0.36145 9.50688
220 1 -1.1104 9.4076 -3.0369 12.293
221 1 -1.1104 9.45238 2.44378 12.3368
222 2 2.2208 7.96988 1.01356 8.18303
223 1 -1.1104 9.22123 -3.21894 9.45039
224 1 -1.1104 9.42741 2.51437 9.53178
225 2 2.2208 7.86099 -1.72619 10.8961
227 1 -1.1104 9.37961 -0.397916 12.2387
228 1 -1.1104 9.39397 -0.298528 9.60539
226 2 2.2208 8.00677 3.87089 10.8759
202 1 -1.1104 9.48099 13.8219 12.1706
165 2 2.2208 10.93 20.8902 8.12419
239 1 -1.1104 3.76506 5.27276 6.5816
234 1 -1.1104 0.752214 8.01377 6.70602
9383 2 2.2208 13.6578 17.9482 13.5586
314 1 -1.1104 9.38126 16.6661 9.5295
78 1 -1.1104 3.75637 10.9921 6.67426
240 2 2.2208 5.31461 6.68388 10.8134
241 2 2.2208 5.16939 12.2573 10.8235
242 1 -1.1104 0.748504 8.22233 12.2188
244 1 -1.1104 1.0296 8.09372 9.32322
246 1 -1.1104 1.13884 5.35998 12.1206
247 1 -1.1104 0.93268 10.9217 12.4038
250 2 2.2208 5.06189 9.45766 8.09507
251 1 -1.1104 0.914629 5.33264 9.29596
252 1 -1.1104 0.966716 10.9746 9.61794
255 1 -1.1104 3.60612 8.13281 12.2916
256 2 2.2208 2.35444 6.64538 7.94698
257 2 2.2208 2.34655 12.2531 8.13506
258 1 -1.1104 3.77612 7.96014 9.41573
259 2 2.2208 2.3608 9.45594 10.8958
260 1 -1.1104 3.88522 5.49587 12.3515
261 1 -1.1104 3.78343 11.0337 12.3063
262 1 -1.1104 3.80678 5.28847 9.38227
263 1 -1.1104 3.80919 10.8335 9.53918
243 1 -1.1104 6.59181 8.1416 12.2276
248 1 -1.1104 6.71393 5.30971 12.2126
156 1 -1.1104 9.50243 19.6195 6.6593
136 1 -1.1104 12.2004 16.5575 12.2237
233 1 -1.1104 9.29566 19.5538 9.44105
26 2 2.2208 10.7731 18.0842 10.8313
265 1 -1.1104 12.204 8.26981 6.6158
266 1 -1.1104 12.2328 5.41383 6.69231
315 1 -1.1104 9.32165 16.643 12.3437
245 1 -1.1104 6.55113 8.04477 9.37703
101 1 -1.1104 9.40376 10.8476 6.58118
253 1 -1.1104 6.61148 5.28091 9.42099
249 1 -1.1104 6.60769 11.0049 12.2614
235 1 -1.1104 6.42238 8.14098 6.64389
90 1 -1.1104 12.1902 10.971 6.65417
254 1 -1.1104 6.45091 10.9237 9.43256
264 1 -1.1104 9.1815 10.9336 9.39881
268 1 -1.1104 9.3646 5.29815 9.48348
270 1 -1.1104 9.51501 11.0572 12.3195
271 1 -1.1104 9.29152 5.50978 12.1443
272 2 2.2208 7.93109 9.54459 10.8372
273 1 -1.1104 9.27295 8.18664 9.55771
274 2 2.2208 7.95963 12.3277 8.05873
275 2 2.2208 7.81525 6.6399 8.06562
276 2 2.2208 10.8043 6.79884 10.9547
277 2 2.2208 10.7428 12.3916 10.7893
278 1 -1.1104 12.2418 8.15204 12.4065
279 1 -1.1104 12.2368 8.08681 9.50447
280 1 -1.1104 12.3311 5.35715 12.3647
281 1 -1.1104 12.0935 10.9148 12.1184
282 2 2.2208 10.7322 9.47536 8.13422
283 1 -1.1104 12.2781 5.34989 9.52905
284 1 -1.1104 12.05 10.8953 9.30751
285 1 -1.1104 9.2777 8.28956 12.2984
104 1 -1.1104 12.3784 19.2992 12.2024
49 2 2.2208 13.5663 1.07761 2.35283
512 2 2.2208 5.19101 15.2227 13.6595
286 1 -1.1104 3.82878 19.5224 12.2063
287 1 -1.1104 3.80118 13.937 12.2879
291 1 -1.1104 1.14008 19.3786 9.5282
292 1 -1.1104 0.88712 16.3669 9.63508
293 2 2.2208 5.13446 20.6944 8.00089
294 1 -1.1104 0.864456 13.5772 9.36905
295 2 2.2208 5.22701 15.1588 8.02129
298 1 -1.1104 0.871829 19.3868 12.3523
299 1 -1.1104 1.00312 13.8187 12.2462
300 2 2.2208 5.14483 18.0059 10.8656
301 1 -1.1104 3.84789 19.4914 9.38852
303 2 2.2208 2.39863 17.9433 8.04229
304 1 -1.1104 3.72111 16.6521 9.39957
305 1 -1.1104 3.78789 13.8198 9.51979
307 1 -1.1104 1.10298 16.4406 12.2588
308 1 -1.1104 3.81293 16.6215 12.1192
309 2 2.2208 2.41217 20.7586 10.7598
310 2 2.2208 2.34896 15.1099 10.8735
8445 2 2.2208 13.5119 -4.5418 2.41368
311 1 -1.1104 12.3023 16.5083 9.44688
231 2 2.2208 7.92679 17.9726 8.05849
306 1 -1.1104 6.43631 16.5771 12.1754
203 1 -1.1104 9.45146 19.5122 12.2739
288 1 -1.1104 6.56654 19.4709 9.33769
290 1 -1.1104 6.61219 13.8698 9.48878
296 1 -1.1104 6.6822 19.4446 12.0425
232 1 -1.1104 9.33197 13.8209 9.40848
27 1 -1.1104 12.261 13.8146 12.0919
137 2 2.2208 10.756 15.1962 8.00361
316 2 2.2208 8.04679 20.7429 10.7823
297 1 -1.1104 6.68088 13.7328 12.1686
135 1 -1.1104 12.0867 19.299 9.43334
289 1 -1.1104 6.52097 16.6155 9.37648
105 1 -1.1104 12.1902 13.774 9.4802
320 2 2.2208 5.31529 3.83762 13.707
541 2 2.2208 8.03777 17.953 13.7273
9024 2 2.2208 13.6262 12.2921 2.32739
513 2 2.2208 2.31386 18.0004 13.6204
25 2 2.2208 13.5371 15.1384 10.7144
318 2 2.2208 5.04089 -1.61949 13.6874
319 2 2.2208 2.25191 1.15478 13.6151
335 2 2.2208 8.03178 20.857 -0.357293
9354 2 2.2208 -0.344353 15.1722 13.6047
9129 2 2.2208 13.6286 1.26244 13.6132
661 2 2.2208 13.5874 9.59767 -0.430689
322 2 2.2208 10.7107 3.99051 13.6266
451 2 2.2208 2.28865 12.341 13.6519
341 2 2.2208 7.92912 9.6102 -0.38648
330 2 2.2208 5.21611 18.0048 -0.262856
331 2 2.2208 2.35858 20.7907 -0.255809
542 2 2.2208 10.7675 17.9915 -0.397243
333 2 2.2208 2.32171 3.85813 -0.333285
343 2 2.2208 5.15927 1.01152 16.2837
344 1 -1.1104 0.971698 -3.09715 17.6459
345 1 -1.1104 0.925692 2.58015 17.764
348 1 -1.1104 0.919318 -3.17023 14.829
350 1 -1.1104 0.979737 2.47789 14.9954
356 1 -1.1104 1.1349 -0.252011 17.9057
358 2 2.2208 5.17725 -1.66531 19.2094
359 2 2.2208 5.21996 3.87674 19.1936
360 1 -1.1104 0.923692 -0.436391 14.9656
364 1 -1.1104 3.86703 -3.03681 17.7671
365 1 -1.1104 3.77974 2.47447 17.765
366 2 2.2208 2.29649 1.20354 19.2874
367 1 -1.1104 3.69201 -3.04724 14.9956
369 1 -1.1104 3.85876 2.58728 14.8767
371 2 2.2208 2.31002 -1.70493 16.4024
373 1 -1.1104 3.87078 -0.190621 17.8414
374 1 -1.1104 3.63303 -0.267986 15.1629
372 2 2.2208 2.37355 3.83907 16.4382
379 2 2.2208 -0.334547 1.08899 16.4119
8608 2 2.2208 2.3498 -4.46441 19.0199
414 2 2.2208 10.8143 -1.69306 13.807
8564 2 2.2208 -0.442305 -4.44339 21.8589
9127 2 2.2208 13.6873 15.2424 27.7735
357 1 -1.1104 6.58429 -0.357259 17.6828
347 1 -1.1104 6.61715 2.47302 18.0088
576 2 2.2208 -0.494162 -1.72607 24.6463
355 1 -1.1104 6.60066 2.4153 20.7998
9353 2 2.2208 -0.429549 17.9705 16.4792
411 2 2.2208 13.7003 15.2007 22.0569
352 1 -1.1104 6.57184 -2.90166 15.0788
9357 2 2.2208 -0.338293 3.82527 24.8336
362 1 -1.1104 6.36545 -0.158234 14.8623
354 1 -1.1104 6.51629 2.55474 15.2764
346 1 -1.1104 6.86495 -3.23429 17.7066
386 2 2.2208 10.9269 1.12323 16.4396
387 1 -1.1104 12.316 2.30847 17.7213
388 1 -1.1104 12.1114 -2.9416 15.2959
389 1 -1.1104 12.2163 2.56965 15.0258
391 1 -1.1104 12.0356 -0.529687 17.8147
392 2 2.2208 10.6854 -1.54907 19.1409
393 2 2.2208 10.8702 3.86371 19.2643
394 1 -1.1104 12.3081 -0.22218 14.9162
396 1 -1.1104 9.62584 -3.00805 17.7064
397 1 -1.1104 9.51814 2.54141 17.8579
398 2 2.2208 7.93649 1.02557 19.2342
399 1 -1.1104 9.32773 -3.2156 15.0638
401 1 -1.1104 9.48014 2.59072 15.1174
403 2 2.2208 8.04079 -1.64027 16.3093
405 1 -1.1104 9.36839 -0.250432 17.9043
406 1 -1.1104 9.46567 -0.143058 15.036
404 2 2.2208 8.09217 3.84521 16.5689
570 2 2.2208 13.6079 9.59654 16.3906
336 2 2.2208 8.08841 3.9148 27.6048
402 1 -1.1104 9.48433 2.5893 20.5963
9313 2 2.2208 13.6578 20.7706 16.4671
416 2 2.2208 5.15677 6.81884 16.4261
417 2 2.2208 5.08083 12.3629 16.5881
418 1 -1.1104 0.896264 8.28739 17.9083
420 1 -1.1104 1.11379 8.16992 15.069
424 1 -1.1104 1.06062 5.55207 17.9091
425 1 -1.1104 0.9756 10.946 17.724
428 2 2.2208 5.1009 9.53436 19.3391
429 1 -1.1104 1.17238 5.39236 15.241
431 1 -1.1104 0.954376 11.0197 14.9982
437 1 -1.1104 3.67983 8.30508 17.9356
438 2 2.2208 2.45888 6.83915 19.3911
439 2 2.2208 2.24427 12.3704 19.2293
440 1 -1.1104 3.79091 8.15098 15.0076
442 2 2.2208 2.37103 9.51223 16.569
443 1 -1.1104 3.84187 5.52637 17.9283
444 1 -1.1104 3.72093 11.0937 18.063
445 1 -1.1104 3.87603 5.4252 15.218
447 1 -1.1104 3.85806 10.9053 15.1544
446 1 -1.1104 3.81389 5.35379 20.7916
382 2 2.2208 -0.452842 12.2958 16.5046
433 1 -1.1104 6.62144 5.34819 15.2221
435 1 -1.1104 6.52637 11.0491 15.0739
423 1 -1.1104 6.5415 8.18184 20.8266
432 1 -1.1104 1.08131 11.0887 20.6091
430 1 -1.1104 1.1102 5.34884 20.6128
448 1 -1.1104 3.89291 11.0544 20.7682
427 1 -1.1104 6.63457 10.9954 17.9047
422 1 -1.1104 6.60285 8.13641 15.0423
426 1 -1.1104 6.68705 5.27148 18.0657
419 1 -1.1104 6.63064 8.21339 17.8858
454 2 2.2208 10.8163 6.86278 16.5744
455 2 2.2208 10.9373 12.3757 16.4369
456 1 -1.1104 12.1261 7.99192 17.9671
457 1 -1.1104 12.2376 8.27159 15.0828
459 1 -1.1104 12.3932 5.23089 17.9035
460 1 -1.1104 12.3336 10.8726 17.817
461 2 2.2208 10.7964 9.5871 19.2662
462 1 -1.1104 12.1162 5.3429 15.1767
464 1 -1.1104 12.378 11.085 15.0414
466 1 -1.1104 9.41322 8.28628 17.8475
467 2 2.2208 7.94478 6.60261 19.5094
468 2 2.2208 8.01022 12.3884 19.1741
469 1 -1.1104 9.49168 8.02688 15.1639
471 2 2.2208 8.00279 9.66295 16.6192
472 1 -1.1104 9.52027 5.33778 18.0006
473 1 -1.1104 9.46887 11.0141 17.7394
474 1 -1.1104 9.3514 5.27743 14.9702
476 1 -1.1104 9.38382 10.939 14.9599
577 2 2.2208 -0.307879 1.13016 21.9569
436 1 -1.1104 6.73002 11.0073 20.7361
458 1 -1.1104 12.0705 8.14152 20.8015
477 1 -1.1104 9.5287 11.042 20.7364
470 1 -1.1104 9.34223 8.24359 20.6954
475 1 -1.1104 9.47444 5.22097 20.8283
606 1 -1.1104 12.0855 13.5944 26.2614
479 2 2.2208 5.29987 17.9087 16.4016
480 1 -1.1104 0.994542 13.7204 17.809
481 1 -1.1104 1.07401 19.4058 17.6585
484 1 -1.1104 0.979853 13.7642 14.9648
486 1 -1.1104 0.896323 19.3471 15.1201
492 1 -1.1104 1.03799 16.5456 17.8479
494 2 2.2208 5.18876 15.148 19.1943
495 2 2.2208 5.0807 20.7109 19.2525
496 1 -1.1104 1.07263 16.6018 15.14
500 1 -1.1104 3.75837 13.9007 17.7536
501 1 -1.1104 3.77943 19.2841 17.7967
502 2 2.2208 2.42155 17.9514 19.1657
503 1 -1.1104 3.80507 13.6933 15.0082
505 1 -1.1104 3.82389 19.3347 14.9316
507 2 2.2208 2.266 15.1243 16.4093
508 2 2.2208 2.40136 20.7695 16.3921
509 1 -1.1104 3.80079 16.6113 17.9672
510 1 -1.1104 3.88315 16.496 15.0235
485 1 -1.1104 0.828119 13.8203 20.622
483 1 -1.1104 6.69686 19.2634 17.9305
9282 2 2.2208 -0.419635 6.68119 16.4272
506 1 -1.1104 3.64427 19.3785 20.757
498 1 -1.1104 6.74197 16.6075 15.0482
482 1 -1.1104 6.64342 13.7838 17.899
497 1 -1.1104 1.02598 16.5849 20.5687
487 1 -1.1104 1.03256 19.5048 20.6053
511 1 -1.1104 3.77174 16.616 20.7963
602 2 2.2208 7.85272 18.035 24.9903
378 2 2.2208 -0.373673 9.57105 19.2406
603 1 -1.1104 6.56471 19.4089 26.3625
490 1 -1.1104 6.67052 19.4214 15.0354
493 1 -1.1104 6.68113 16.543 17.6908
488 1 -1.1104 6.5236 13.8613 15.0245
489 1 -1.1104 6.59907 13.8855 20.7419
521 1 -1.1104 12.1008 19.4663 20.7735
538 1 -1.1104 9.5289 16.5105 20.6922
515 2 2.2208 10.9007 17.9986 16.5177
516 1 -1.1104 12.1985 13.6598 17.8526
517 1 -1.1104 12.3101 19.4066 17.9235
518 1 -1.1104 12.289 13.9355 15.0251
520 1 -1.1104 12.1657 19.4457 15.2243
522 1 -1.1104 12.3588 16.5927 17.8791
523 2 2.2208 10.9372 15.2144 19.2048
524 2 2.2208 10.7741 20.7601 19.3389
525 1 -1.1104 12.1993 16.7635 15.0192
527 1 -1.1104 9.4655 13.8375 17.7991
528 1 -1.1104 9.41015 19.4656 17.9386
529 2 2.2208 7.96905 17.9191 19.2234
530 1 -1.1104 9.41181 13.7027 15.0029
532 1 -1.1104 9.457 19.3828 15.1571
534 2 2.2208 8.03252 15.2117 16.4543
535 2 2.2208 8.086 20.7198 16.5751
536 1 -1.1104 9.55608 16.6471 17.906
537 1 -1.1104 9.38404 16.5932 15.1462
531 1 -1.1104 9.30802 13.7004 20.5635
533 1 -1.1104 9.25753 19.3641 20.7144
368 1 -1.1104 3.71029 -3.17636 20.5504
450 2 2.2208 -0.438195 17.9599 21.9974
363 1 -1.1104 6.7115 -0.380389 20.7175
605 1 -1.1104 12.4562 19.3936 23.4873
636 2 2.2208 -0.442217 9.4466 24.9522
370 1 -1.1104 3.78853 2.63244 20.6644
349 1 -1.1104 0.94719 -3.15807 20.4892
375 1 -1.1104 3.85891 -0.299784 20.6503
361 1 -1.1104 1.08015 -0.193097 20.6282
351 1 -1.1104 1.03982 2.67466 20.6702
543 2 2.2208 5.25033 1.07493 22.1264
544 1 -1.1104 0.834213 -3.07342 23.2881
545 1 -1.1104 1.10687 2.50579 23.3961
548 1 -1.1104 0.928171 -3.11064 26.1901
549 1 -1.1104 0.961518 2.54842 26.318
552 1 -1.1104 1.15785 -0.270903 23.3055
554 2 2.2208 5.23092 -1.69135 24.8708
556 1 -1.1104 0.891191 -0.245867 26.1839
558 1 -1.1104 3.65188 -3.19754 23.3593
559 1 -1.1104 3.80681 2.32095 23.4308
560 2 2.2208 2.43124 0.950937 24.8656
561 1 -1.1104 3.85918 -3.15944 26.1238
562 1 -1.1104 3.73009 2.45549 26.3358
563 2 2.2208 2.33516 -1.70014 21.9577
564 2 2.2208 2.59423 3.92755 22.2222
565 1 -1.1104 3.93367 -0.408935 23.4077
566 1 -1.1104 3.81983 -0.211601 26.2903
555 2 2.2208 5.12016 3.81092 24.834
384 1 -1.1104 9.3996 19.5022 26.2115
551 1 -1.1104 6.43288 2.47609 26.3746
660 2 2.2208 13.7001 12.3395 24.8106
407 1 -1.1104 9.53008 -0.317363 20.8079
395 1 -1.1104 12.3735 -0.633661 20.4193
557 1 -1.1104 6.65757 -0.15358 26.3528
353 1 -1.1104 6.6521 -3.06523 20.4999
400 1 -1.1104 9.68966 -3.00616 20.6709
546 1 -1.1104 6.45331 -3.10734 23.3928
547 1 -1.1104 6.70583 2.51754 23.5786
553 1 -1.1104 6.65816 -0.270422 23.4281
550 1 -1.1104 6.67335 -3.03604 26.0761
390 1 -1.1104 12.2279 2.28799 20.5692
579 2 2.2208 10.8425 1.12965 22.0598
580 1 -1.1104 12.2177 -2.84866 23.3214
581 1 -1.1104 12.3293 2.55327 23.5152
582 1 -1.1104 12.0967 -3.13493 26.1487
583 1 -1.1104 12.2266 2.4637 26.4063
584 1 -1.1104 12.2 -0.304439 23.2905
585 2 2.2208 10.691 -1.75587 24.7492
586 2 2.2208 10.817 4.0351 24.8786
587 1 -1.1104 12.1645 -0.398619 26.0808
588 1 -1.1104 9.26993 -3.12781 23.4993
589 1 -1.1104 9.55118 2.618 23.3272
590 2 2.2208 7.96049 1.10054 24.9719
591 1 -1.1104 9.38722 -3.11185 26.1664
592 1 -1.1104 9.32993 2.6359 26.1842
593 2 2.2208 8.07306 -1.6637 22.0475
594 2 2.2208 8.04963 3.96998 22.0659
595 1 -1.1104 9.56135 -0.174413 23.5172
596 1 -1.1104 9.37011 -0.223325 26.2406
409 2 2.2208 13.6784 12.3991 19.3573
597 2 2.2208 10.8715 1.01838 27.6591
572 2 2.2208 -0.293056 3.9704 19.2858
9208 2 2.2208 13.556 1.0693 24.8613
421 1 -1.1104 1.03228 8.32467 20.821
664 1 -1.1104 6.54896 13.7554 26.3895
413 2 2.2208 7.96779 20.6705 21.9715
441 1 -1.1104 3.85403 8.10791 20.7552
499 1 -1.1104 6.58885 16.5622 20.6988
608 2 2.2208 5.17511 6.74798 22.2401
609 2 2.2208 5.15445 12.4711 22.0934
610 1 -1.1104 0.983405 8.17477 23.5503
612 1 -1.1104 1.03127 8.12049 26.411
614 1 -1.1104 1.06876 5.30662 23.4723
615 1 -1.1104 1.17216 10.8521 23.3867
618 2 2.2208 5.13395 9.63213 25.0552
619 1 -1.1104 1.11227 5.28988 26.1308
620 1 -1.1104 1.01184 10.8929 26.0742
623 1 -1.1104 3.79862 8.13708 23.5772
624 2 2.2208 2.43023 6.79834 24.905
625 2 2.2208 2.32627 12.3565 24.8711
626 1 -1.1104 3.71452 8.28361 26.4257
627 2 2.2208 2.52984 9.51448 22.0948
628 1 -1.1104 3.88744 5.36944 23.5715
629 1 -1.1104 3.83066 10.9479 23.3474
630 1 -1.1104 3.80407 5.20825 26.3131
631 1 -1.1104 3.7943 11.0639 26.443
434 1 -1.1104 6.5586 5.32036 20.8197
622 1 -1.1104 6.5638 11.022 26.3978
611 1 -1.1104 6.64982 8.07618 23.6081
617 1 -1.1104 6.708 11.0402 23.636
621 1 -1.1104 6.65523 5.27693 26.3341
415 1 -1.1104 9.32678 16.8272 23.5372
519 1 -1.1104 12.245 13.8655 20.6816
574 1 -1.1104 9.42201 13.9023 23.5445
616 1 -1.1104 6.54676 5.27751 23.5747
465 1 -1.1104 12.2369 11.1417 20.8038
613 1 -1.1104 6.39345 8.18067 26.3485
463 1 -1.1104 12.2081 5.21247 20.8922
639 1 -1.1104 9.36878 10.9806 26.2775
640 1 -1.1104 9.32429 5.46764 26.3591
641 1 -1.1104 9.49156 11.1101 23.531
642 1 -1.1104 9.47032 5.46748 23.6881
643 2 2.2208 8.12648 9.67887 22.0885
644 1 -1.1104 9.2464 8.21546 26.379
645 2 2.2208 8.01427 12.3825 24.9374
646 2 2.2208 7.90246 6.74583 24.9569
647 2 2.2208 10.7382 6.75271 22.094
648 2 2.2208 10.7679 12.4696 22.0796
649 1 -1.1104 12.3015 8.14166 23.5139
650 1 -1.1104 12.1447 8.09342 26.2414
651 1 -1.1104 12.2005 5.38113 23.5176
652 1 -1.1104 12.2775 10.8349 23.4548
653 2 2.2208 10.9085 9.61015 24.872
654 1 -1.1104 12.2054 5.24686 26.2899
655 1 -1.1104 12.2271 10.82 26.1338
656 1 -1.1104 9.47844 8.26097 23.3843
578 2 2.2208 10.8159 18.0414 22.101
540 2 2.2208 -0.416251 15.0612 24.7648
573 1 -1.1104 12.257 16.5018 26.3427
575 1 -1.1104 6.54964 16.6072 23.391
672 2 2.2208 5.2639 15.1595 24.8127
671 2 2.2208 5.19721 20.8321 24.8
670 1 -1.1104 6.62658 19.4242 23.6277
669 1 -1.1104 0.964376 13.5908 26.2824
504 1 -1.1104 3.73161 13.7403 20.5843
491 1 -1.1104 6.49649 19.4239 20.5856
567 2 2.2208 2.4592 15.3286 22.0628
568 2 2.2208 2.37283 20.7915 22.1148
569 1 -1.1104 3.83678 16.598 23.4438
571 1 -1.1104 0.962588 16.6106 23.3803
599 1 -1.1104 3.80133 13.785 26.335
632 1 -1.1104 3.81613 16.5675 26.3743
633 2 2.2208 2.35456 17.8934 25.0437
634 1 -1.1104 3.70988 19.3859 26.3772
635 2 2.2208 5.12511 17.9934 22.0363
658 1 -1.1104 1.03301 13.7078 23.4389
659 1 -1.1104 0.97069 19.3095 23.4734
663 1 -1.1104 3.82292 19.3777 23.3687
665 1 -1.1104 3.84065 13.8161 23.5052
667 1 -1.1104 0.975073 19.1808 26.4033
668 1 -1.1104 0.923865 16.3462 26.189
452 2 2.2208 10.9657 20.8133 24.8774
600 1 -1.1104 12.3093 13.7404 23.3883
449 1 -1.1104 9.32184 16.4433 26.2632
385 2 2.2208 8.04714 15.2334 22.1824
607 1 -1.1104 12.2675 19.2621 26.2786
601 1 -1.1104 9.51918 19.696 23.5194
383 1 -1.1104 9.39269 13.9267 26.2802
666 1 -1.1104 6.54416 16.6953 26.3749
638 1 -1.1104 12.2059 16.6385 23.5208
526 1 -1.1104 12.2565 16.6523 20.6126
478 2 2.2208 10.8958 15.1619 24.9666
673 1 -1.1104 6.43628 13.6936 23.6805
332 2 2.2208 2.29936 -1.64476 27.6995
8457 2 2.2208 5.21368 -4.50472 27.6176
328 2 2.2208 5.19199 1.11378 27.7333
8646 2 2.2208 -0.421931 -4.54164 16.3275
339 2 2.2208 5.11413 12.5085 27.7392
657 2 2.2208 10.7533 6.88388 27.7207
342 2 2.2208 10.7641 12.2782 27.5806
329 2 2.2208 2.23413 15.151 27.7178
337 2 2.2208 5.15182 6.71289 27.7011
9136 2 2.2208 -0.538577 1.19915 27.5238
338 2 2.2208 2.38984 9.66996 27.7058
9130 2 2.2208 -0.367801 6.67102 27.7159
598 2 2.2208 7.96013 -1.8334 27.6748
327 2 2.2208 10.7999 15.2589 13.7165
412 2 2.2208 7.94396 15.2438 27.727
323 2 2.2208 2.30653 6.70652 13.7364
334 2 2.2208 13.5487 6.75339 13.808
325 2 2.2208 7.95448 12.4055 13.7564
324 2 2.2208 5.13745 9.46728 13.6537
9388 2 2.2208 13.6766 20.7825 27.6937
9133 2 2.2208 -0.469102 9.53362 13.7311
453 2 2.2208 10.7192 9.69073 13.697
674 2 2.2208 5.21998 23.5555 5.14382
675 2 2.2208 5.12939 29.2203 5.17756
676 1 -1.1104 0.908998 25.1002 1.0016
677 1 -1.1104 0.920063 25.1018 3.90899
678 1 -1.1104 1.05311 22.1648 1.03495
679 1 -1.1104 1.08248 27.8147 1.08064
680 2 2.2208 4.90705 26.3918 2.32192
681 1 -1.1104 0.923812 22.0783 3.93519
682 1 -1.1104 0.824006 27.8206 3.85056
683 1 -1.1104 3.66844 24.9964 1.04754
684 2 2.2208 2.11959 23.5787 2.46816
685 2 2.2208 2.42986 29.2388 2.46942
686 1 -1.1104 3.65234 24.9283 3.71957
687 2 2.2208 2.40267 26.3693 5.20982
688 1 -1.1104 3.80822 22.2074 1.01065
689 1 -1.1104 3.73356 27.8786 0.977721
690 1 -1.1104 3.74671 22.2192 3.78685
691 1 -1.1104 3.66634 27.7481 3.84
817 1 -1.1104 1.09804 22.106 6.71262
698 1 -1.1104 6.44776 27.7882 1.09802
820 1 -1.1104 6.46361 27.9308 6.60379
700 1 -1.1104 6.4969 27.8728 3.83929
699 1 -1.1104 6.74762 22.2242 3.76994
696 1 -1.1104 6.48673 25.0407 3.66935
819 1 -1.1104 6.61869 22.3472 6.61063
813 2 2.2208 13.7986 45.9312 2.46282
821 1 -1.1104 3.97049 24.8451 6.57968
823 1 -1.1104 3.6906 27.7506 6.58668
822 1 -1.1104 3.91577 22.1229 6.50991
695 1 -1.1104 6.43589 25.1103 0.955351
697 1 -1.1104 6.5634 22.4628 0.973171
701 2 2.2208 10.9525 23.5226 5.25446
702 2 2.2208 10.5992 29.2609 5.33874
703 1 -1.1104 12.1781 25.0003 1.05931
704 1 -1.1104 12.1889 24.957 3.94099
705 1 -1.1104 12.2867 22.1392 1.0084
706 1 -1.1104 12.1706 27.8209 1.03019
707 2 2.2208 10.7913 26.4846 2.50549
708 1 -1.1104 12.2529 22.2401 3.83556
709 1 -1.1104 12.0857 27.7631 3.80676
710 1 -1.1104 9.31359 24.9174 0.679228
711 2 2.2208 7.92936 23.6499 2.33616
712 2 2.2208 7.96071 29.2149 2.44815
713 1 -1.1104 9.19275 24.948 4.01467
714 2 2.2208 7.75534 26.5334 5.1107
715 1 -1.1104 9.35427 22.2039 1.17251
716 1 -1.1104 9.44105 27.6097 1.00165
717 1 -1.1104 9.5145 22.1958 3.79687
718 1 -1.1104 9.16659 27.6628 3.70866
1012 2 2.2208 7.82715 26.564 -0.274287
1349 1 -1.1104 1.05316 47.4622 1.09592
852 1 -1.1104 8.97158 27.815 6.39013
850 1 -1.1104 12.2794 28.0353 6.54293
851 1 -1.1104 9.43117 22.5791 6.59642
816 1 -1.1104 6.82148 25.0079 6.62173
848 1 -1.1104 12.149 24.9565 6.56694
1011 2 2.2208 11.0061 23.4612 -0.271121
723 2 2.2208 5.20528 34.9435 5.14803
724 1 -1.1104 1.0081 30.5682 1.05
725 1 -1.1104 0.873637 36.2536 0.970937
727 1 -1.1104 1.09129 30.5853 3.65909
728 1 -1.1104 0.946752 36.3381 3.78723
730 1 -1.1104 0.998168 33.3382 1.02398
731 2 2.2208 5.26395 32.0878 2.42148
732 2 2.2208 5.21033 37.8006 2.46053
733 1 -1.1104 0.965367 33.4325 3.83536
735 1 -1.1104 3.84053 30.6126 1.19352
736 1 -1.1104 3.55984 36.1066 0.992974
737 2 2.2208 2.353 34.8709 2.46648
738 1 -1.1104 3.79622 30.5717 3.87313
739 1 -1.1104 3.90676 36.3793 3.78694
740 2 2.2208 2.34577 31.9794 5.19507
741 2 2.2208 2.31344 37.747 5.3474
742 1 -1.1104 3.84263 33.2404 1.00955
743 1 -1.1104 3.75215 33.532 3.76635
734 1 -1.1104 6.54036 33.4792 3.80602
876 1 -1.1104 3.63196 36.2962 6.51263
870 1 -1.1104 0.900185 36.1552 6.54926
788 1 -1.1104 3.6554 38.9116 1.10776
869 1 -1.1104 0.992238 30.6236 6.4962
877 1 -1.1104 3.94307 33.3307 6.50236
875 1 -1.1104 3.82525 30.6356 6.58456
872 1 -1.1104 6.64566 36.3149 6.79766
871 1 -1.1104 6.62299 30.5653 6.63785
729 1 -1.1104 6.54039 36.3722 3.96951
726 1 -1.1104 6.64581 36.3102 1.06175
748 1 -1.1104 6.64923 33.4512 1.06256
746 1 -1.1104 6.65043 30.6098 1.18521
747 1 -1.1104 6.54404 30.6828 3.94209
749 2 2.2208 10.7696 34.8811 5.29309
750 1 -1.1104 12.0685 30.7653 1.13251
751 1 -1.1104 12.1126 36.3686 1.03483
752 1 -1.1104 12.0983 30.629 3.89289
753 1 -1.1104 12.044 36.2394 3.88127
754 1 -1.1104 12.2542 33.4803 1.14742
755 2 2.2208 10.8003 32.0497 2.55481
756 2 2.2208 10.8724 37.7127 2.46815
757 1 -1.1104 12.0632 33.4635 3.92284
758 1 -1.1104 9.37943 30.663 1.02444
759 1 -1.1104 9.48096 36.2714 1.12337
760 2 2.2208 7.97997 34.8903 2.52746
761 1 -1.1104 9.28126 30.3357 3.76814
762 1 -1.1104 9.35194 36.3541 3.89765
763 2 2.2208 7.91763 32.0407 5.26476
764 2 2.2208 7.96206 37.749 5.32803