ITEM: TIMESTEP
90000
ITEM: NUMBER OF ATOMS
17820
ITEM: BOX BOUNDS pp pp pp
-3.5862600091486813e-01 2.7698626000915180e+01
-4.3782945321019833e+00 3.3245829453209791e+02
-3.6264740297085979e-01 2.7702647402971024e+01
ITEM: ATOMS id type q x y z
1 2 2.2208 5.20935 1.19646 5.16894
2 1 -1.1104 0.879737 -2.79779 0.859233
3 1 -1.1104 0.97884 2.65401 1.0312
6 1 -1.1104 1.15874 -2.98409 3.75279
7 1 -1.1104 1.00569 2.53618 3.77293
10 1 -1.1104 1.06907 -0.0202084 0.871243
12 2 2.2208 5.13459 -1.61818 2.26701
13 2 2.2208 5.17796 4.0969 2.4228
14 1 -1.1104 0.793271 -0.279025 3.81536
16 1 -1.1104 3.72016 -3.12707 0.861535
17 1 -1.1104 3.83606 2.72142 0.761825
18 2 2.2208 2.42038 1.2444 2.37538
19 1 -1.1104 3.9557 -2.84712 3.80883
20 1 -1.1104 3.75748 2.6531 3.69057
21 2 2.2208 2.36967 -1.58442 5.10943
22 2 2.2208 2.35955 4.02434 5.13338
23 1 -1.1104 3.81339 -0.264432 0.822708
24 1 -1.1104 3.70292 -0.149155 3.80234
173 1 -1.1104 3.74456 2.5799 6.53846
172 1 -1.1104 3.6363 -2.94752 6.5751
167 1 -1.1104 0.959818 2.64808 6.50686
15 1 -1.1104 6.38561 -0.160961 3.73269
4 1 -1.1104 6.54218 -2.98114 0.878213
11 1 -1.1104 6.56977 -0.0499649 1.02398
8 1 -1.1104 6.68352 -2.95589 3.71478
170 1 -1.1104 0.907775 -0.202792 6.59809
174 1 -1.1104 3.62727 -0.152036 6.50358
166 1 -1.1104 0.852683 -2.91912 6.60659
168 1 -1.1104 6.35889 -2.98284 6.56207
9 1 -1.1104 6.44811 2.73253 3.94517
5 1 -1.1104 6.67673 2.66378 1.05118
412 2 2.2208 8.03501 15.2114 -0.287303
31 2 2.2208 10.5849 1.21913 5.11952
32 1 -1.1104 12.2356 -2.90581 0.914548
33 1 -1.1104 12.241 2.69602 1.02293
34 1 -1.1104 12.103 -3.08188 3.62324
35 1 -1.1104 12.0566 2.66166 3.89351
36 1 -1.1104 12.2854 -0.201797 1.08799
37 2 2.2208 10.7792 -1.66582 2.29572
38 2 2.2208 10.7724 4.07495 2.44645
39 1 -1.1104 12.1614 -0.269624 3.7459
40 1 -1.1104 9.32645 -2.91735 0.90692
41 1 -1.1104 9.5389 2.71834 0.900055
42 2 2.2208 8.01579 1.20147 2.27001
43 1 -1.1104 9.49757 -2.9089 3.6885
44 1 -1.1104 9.06634 2.69928 3.7095
45 2 2.2208 7.78845 -1.57155 5.03701
46 2 2.2208 7.82268 4.05731 5.20073
47 1 -1.1104 9.45342 -0.2185 0.96582
48 1 -1.1104 9.32292 -0.0358942 3.66845
49 2 2.2208 13.6514 1.25234 2.39326
210 1 -1.1104 9.15464 -0.19511 6.47807
50 2 2.2208 13.4584 -1.59006 5.16569
209 1 -1.1104 9.31913 2.61451 6.49528
171 1 -1.1104 6.48973 -0.228384 6.54518
208 1 -1.1104 9.20582 -3.04537 6.54195
8463 2 2.2208 2.30288 -4.30315 13.4471
54 2 2.2208 5.05355 6.83303 5.32679
55 2 2.2208 5.19367 12.4103 5.36019
56 1 -1.1104 1.00519 8.22268 1.18967
58 1 -1.1104 1.2065 8.21605 3.92686
60 1 -1.1104 1.03536 5.39248 1.05127
61 1 -1.1104 1.00482 11.0083 1.08476
66 2 2.2208 5.26464 9.67946 2.56344
67 1 -1.1104 0.998104 5.48283 3.70796
68 1 -1.1104 0.936821 11.0174 3.94734
71 1 -1.1104 3.71834 8.25015 1.07422
72 2 2.2208 2.40688 6.87714 2.49599
73 2 2.2208 2.4627 12.5278 2.47587
74 1 -1.1104 3.88485 8.28615 3.82381
75 2 2.2208 2.41921 9.69808 5.30278
76 1 -1.1104 3.8055 5.40765 1.15113
77 1 -1.1104 3.75522 10.9878 1.07978
79 1 -1.1104 3.73898 5.50334 3.86859
80 1 -1.1104 3.7352 11.1177 3.85904
236 1 -1.1104 0.827963 5.43196 6.51973
8443 2 2.2208 7.98495 -4.33063 2.26156
234 1 -1.1104 0.902544 8.27665 6.71932
233 1 -1.1104 9.44237 19.684 9.48339
238 1 -1.1104 3.65687 8.19735 6.55741
239 1 -1.1104 3.77327 5.28054 6.66813
78 1 -1.1104 3.71942 10.9447 6.63023
62 1 -1.1104 0.94017 11.1257 6.60441
59 1 -1.1104 6.66291 8.34027 3.97834
70 1 -1.1104 6.57039 11.075 4.02399
64 1 -1.1104 6.57665 11.0514 1.08758
237 1 -1.1104 6.49987 5.55876 6.59339
65 1 -1.1104 6.71604 11.0754 6.83727
57 1 -1.1104 6.34963 8.17631 1.10363
69 1 -1.1104 6.56456 5.60695 3.86743
63 1 -1.1104 6.70635 5.5027 0.903742
84 2 2.2208 10.8466 6.76413 5.21809
85 2 2.2208 10.915 12.4179 5.27525
86 1 -1.1104 12.0129 8.18186 1.11371
87 1 -1.1104 12.1811 8.10912 4.06074
88 1 -1.1104 12.1938 5.35951 0.935118
89 1 -1.1104 12.1379 10.9203 1.10168
91 2 2.2208 10.7443 9.66323 2.44464
92 1 -1.1104 12.474 5.38063 3.75385
93 1 -1.1104 12.1182 10.9276 3.84367
94 1 -1.1104 9.19089 8.29964 1.0105
95 2 2.2208 8.07984 6.88032 2.38155
96 2 2.2208 7.98291 12.4957 2.49401
97 1 -1.1104 9.46718 8.36005 3.78375
98 2 2.2208 8.0057 9.66067 5.33142
99 1 -1.1104 9.31916 5.4747 1.1057
100 1 -1.1104 9.28198 10.9271 0.958063
102 1 -1.1104 9.47972 5.49179 3.86844
103 1 -1.1104 9.36135 11.1491 3.84937
101 1 -1.1104 9.42773 10.9084 6.78544
267 1 -1.1104 9.36483 8.10338 6.67081
235 1 -1.1104 6.53196 8.31024 6.79538
269 1 -1.1104 9.57181 5.49532 6.50333
9016 2 2.2208 13.6526 6.93072 2.3514
8445 2 2.2208 13.5568 -4.36928 2.33305
8448 2 2.2208 7.87883 -4.31202 7.9772
106 2 2.2208 5.21596 18.0703 5.24246
107 1 -1.1104 0.999102 13.9061 1.04563
109 1 -1.1104 1.09591 19.3839 0.986796
113 1 -1.1104 0.979549 13.8857 3.94607
114 1 -1.1104 1.08727 19.3371 3.86644
116 1 -1.1104 1.00429 16.6145 1.01766
119 2 2.2208 5.08569 15.3646 2.48992
120 2 2.2208 5.06609 20.8999 2.37857
121 1 -1.1104 0.824945 16.569 3.91741
123 1 -1.1104 3.70017 13.9372 1.06758
125 1 -1.1104 3.75451 19.4297 1.17774
127 2 2.2208 2.30237 18.034 2.53479
128 1 -1.1104 3.76793 13.8385 3.92884
129 1 -1.1104 3.90096 19.6085 3.81388
130 2 2.2208 2.3865 15.1358 5.35382
131 2 2.2208 2.39629 20.7899 5.255
132 1 -1.1104 3.74509 16.6409 1.00525
134 1 -1.1104 3.6526 16.7705 3.79749
126 1 -1.1104 3.79659 19.3596 6.60428
133 1 -1.1104 3.82544 16.5507 6.51516
115 1 -1.1104 6.49849 13.8776 4.02593
124 1 -1.1104 3.81247 13.7805 6.59626
302 1 -1.1104 0.949296 19.3994 6.5217
117 1 -1.1104 0.805708 16.5432 6.56557
229 2 2.2208 13.6546 1.3753 7.95535
140 1 -1.1104 6.51118 16.6638 1.21774
110 1 -1.1104 6.71573 13.8887 1.14329
138 1 -1.1104 6.60329 19.5452 0.986827
122 1 -1.1104 6.45477 16.589 3.86973
108 1 -1.1104 0.917391 13.7948 6.78564
9123 2 2.2208 13.5718 18.1536 8.00844
111 1 -1.1104 6.66449 13.8236 6.68398
25 2 2.2208 13.6475 15.1562 10.9851
139 1 -1.1104 6.71673 19.547 3.7079
118 1 -1.1104 6.79098 16.6231 6.60675
112 1 -1.1104 6.58307 19.34 6.52254
141 2 2.2208 10.9021 18.0139 5.17689
142 1 -1.1104 12.3001 13.6387 1.05152
144 1 -1.1104 12.3484 19.5389 1.14286
146 1 -1.1104 12.2561 13.8083 3.71918
147 1 -1.1104 12.186 19.3966 3.72816
148 1 -1.1104 12.1878 16.7093 0.879046
150 2 2.2208 10.8043 15.1743 2.44086
151 2 2.2208 10.9065 20.76 2.34172
152 1 -1.1104 12.2965 16.5462 3.67568
153 1 -1.1104 9.41836 13.9086 1.07058
155 1 -1.1104 9.49991 19.4153 1.01546
157 2 2.2208 7.96339 18.093 2.51461
158 1 -1.1104 9.49023 13.9345 4.04366
159 1 -1.1104 9.51575 19.3985 3.85088
160 2 2.2208 7.94109 15.2452 5.32036
161 2 2.2208 7.96619 20.8696 5.22289
162 1 -1.1104 9.35594 16.6866 1.04738
164 1 -1.1104 9.32983 16.5505 3.83883
163 1 -1.1104 9.50824 16.8196 6.72217
154 1 -1.1104 9.40261 13.936 6.65536
53 2 2.2208 13.4757 9.56926 5.4353
30 2 2.2208 13.5193 9.55121 10.8505
8440 2 2.2208 2.40603 -4.37575 2.35769
175 2 2.2208 5.09836 1.17852 10.7735
176 1 -1.1104 0.847683 -2.98511 12.0329
177 1 -1.1104 0.84879 2.49698 11.9794
180 1 -1.1104 0.933935 -3.02038 9.29534
181 1 -1.1104 1.07395 2.57794 9.25994
184 1 -1.1104 1.02955 -0.245757 12.1231
186 2 2.2208 5.06435 -1.47775 7.94609
188 1 -1.1104 0.933744 -0.0796421 9.38803
190 1 -1.1104 3.69867 -2.98372 12.2012
191 1 -1.1104 3.63969 2.55612 12.1449
192 2 2.2208 2.37412 1.35571 7.83989
193 1 -1.1104 3.8298 -2.98328 9.44297
194 1 -1.1104 3.83627 2.68809 9.38231
195 2 2.2208 2.43222 -1.53893 10.5878
197 1 -1.1104 3.86363 -0.209436 12.1584
198 1 -1.1104 3.74082 -0.138447 9.31218
196 2 2.2208 2.31991 3.94795 10.7778
187 2 2.2208 5.10648 4.03556 7.97597
178 1 -1.1104 6.56014 -2.99148 12.1212
179 1 -1.1104 6.553 2.58616 12.209
182 1 -1.1104 6.54313 -2.78016 9.32324
311 1 -1.1104 11.9741 16.6064 9.516
319 2 2.2208 2.302 1.28192 13.5669
320 2 2.2208 5.27797 3.91 13.5732
8835 2 2.2208 -0.316782 20.7191 8.10117
185 1 -1.1104 6.6186 -0.127754 12.1837
329 2 2.2208 2.39902 15.1936 -0.31137
27 1 -1.1104 12.3217 13.8042 12.4265
9024 2 2.2208 13.6345 12.4001 2.48225
169 1 -1.1104 6.59319 2.54885 6.58005
52 2 2.2208 13.4826 6.68795 8.08447
206 1 -1.1104 12.0814 2.57058 6.68303
143 1 -1.1104 12.4132 13.7018 6.61665
156 1 -1.1104 9.33746 19.7923 6.70279
314 1 -1.1104 9.39478 16.7318 9.46893
189 1 -1.1104 6.51289 -0.129769 9.29348
207 1 -1.1104 12.0703 -0.156518 6.54876
335 2 2.2208 7.96494 20.9658 -0.336384
202 1 -1.1104 9.50801 13.7862 12.3521
230 2 2.2208 13.5015 -1.57637 10.6901
183 1 -1.1104 6.53667 2.63725 9.37474
205 1 -1.1104 12.1769 -2.90628 6.54675
211 2 2.2208 10.708 1.23088 10.7858
212 1 -1.1104 12.1416 -3.0027 12.3471
213 1 -1.1104 12.3816 2.68276 12.2706
214 1 -1.1104 12.0736 -3.13235 9.32802
215 1 -1.1104 12.1561 2.5772 9.50265
216 1 -1.1104 12.0729 -0.341534 12.2168
217 2 2.2208 10.5865 -1.67345 7.84126
218 2 2.2208 10.6464 3.92719 7.98549
219 1 -1.1104 11.9795 -0.224893 9.37175
220 1 -1.1104 9.28696 -2.97238 12.2996
221 1 -1.1104 9.42034 2.47287 12.0122
222 2 2.2208 7.95818 1.13921 7.99826
223 1 -1.1104 9.21579 -3.06476 9.41356
224 1 -1.1104 9.29751 2.60074 9.33254
225 2 2.2208 8.01089 -1.58093 10.7636
227 1 -1.1104 9.38117 -0.135482 12.3271
228 1 -1.1104 9.26002 -0.184643 9.30683
226 2 2.2208 7.95968 3.89665 10.8813
137 2 2.2208 10.7915 15.2912 8.07299
321 2 2.2208 7.96825 1.06173 13.6984
240 2 2.2208 5.02225 6.59805 10.7762
241 2 2.2208 5.2608 12.4287 11.0173
242 1 -1.1104 0.85578 8.35453 12.2486
244 1 -1.1104 0.772146 8.2911 9.47583
246 1 -1.1104 1.11311 5.64149 12.0241
247 1 -1.1104 0.984372 11.044 12.2891
250 2 2.2208 5.18884 9.72631 8.13344
251 1 -1.1104 0.854224 5.42914 9.39439
252 1 -1.1104 0.988455 11.1807 9.41936
255 1 -1.1104 3.63727 8.07365 12.1696
256 2 2.2208 2.28909 6.80141 7.99651
257 2 2.2208 2.3841 12.472 8.05153
258 1 -1.1104 3.63988 8.3192 9.27424
259 2 2.2208 2.43947 9.72043 10.8807
260 1 -1.1104 3.83871 5.23038 12.0646
261 1 -1.1104 3.88304 10.9507 12.2133
262 1 -1.1104 3.68847 5.44087 9.31576
263 1 -1.1104 3.88907 11.0328 9.53058
306 1 -1.1104 6.51127 16.6779 12.2111
324 2 2.2208 5.22141 9.59652 13.6608
248 1 -1.1104 6.66953 5.2564 12.133
317 2 2.2208 7.91662 15.1964 10.8872
145 1 -1.1104 12.1828 19.3409 6.53211
249 1 -1.1104 6.63869 11.0182 12.3572
254 1 -1.1104 6.76492 11.0242 9.63244
243 1 -1.1104 6.45695 8.03846 12.3282
26 2 2.2208 10.7163 18.1082 10.7788
90 1 -1.1104 12.1711 10.968 6.67226
265 1 -1.1104 12.0841 8.11581 6.8645
232 1 -1.1104 9.48277 13.8971 9.52744
245 1 -1.1104 6.41128 8.28056 9.50537
318 2 2.2208 5.04864 -1.59295 13.4916
105 1 -1.1104 12.2917 13.6785 9.51309
266 1 -1.1104 12.2485 5.18051 6.59509
253 1 -1.1104 6.40068 5.48183 9.30489
264 1 -1.1104 9.54387 11.1483 9.58502
268 1 -1.1104 9.12212 5.25505 9.27983
270 1 -1.1104 9.36256 10.9881 12.4146
271 1 -1.1104 9.42716 5.27878 12.2037
272 2 2.2208 7.96155 9.46668 10.9481
273 1 -1.1104 9.33128 8.20106 9.62021
274 2 2.2208 8.05394 12.479 8.19103
275 2 2.2208 7.91288 6.84216 8.14398
276 2 2.2208 10.7198 6.73614 10.9247
277 2 2.2208 10.8234 12.4131 10.9464
278 1 -1.1104 12.1824 8.06765 12.3678
279 1 -1.1104 12.0472 8.08047 9.58691
280 1 -1.1104 12.0762 5.34983 12.1979
281 1 -1.1104 12.2655 10.9758 12.2006
282 2 2.2208 10.6499 9.49812 8.10201
283 1 -1.1104 11.9897 5.35997 9.40787
284 1 -1.1104 12.2493 10.7731 9.38852
285 1 -1.1104 9.40335 8.15111 12.2201
8837 2 2.2208 13.5865 3.9801 5.22676
149 1 -1.1104 12.162 16.619 6.63944
104 1 -1.1104 12.268 19.3125 12.2606
8909 2 2.2208 13.5545 20.783 5.11888
297 1 -1.1104 6.55497 13.8577 12.3382
231 2 2.2208 8.13889 18.1076 8.1403
288 1 -1.1104 6.75762 19.573 9.31234
286 1 -1.1104 3.93454 19.524 12.3267
287 1 -1.1104 3.71158 13.7756 12.151
291 1 -1.1104 1.03129 19.343 9.46704
292 1 -1.1104 1.15718 16.5587 9.36852
293 2 2.2208 5.29035 20.7027 7.97495
294 1 -1.1104 0.984819 13.8546 9.52319
295 2 2.2208 5.32577 15.2208 8.09036
298 1 -1.1104 1.11978 19.478 12.2781
299 1 -1.1104 1.04544 13.8481 12.3079
300 2 2.2208 5.17632 18.0874 10.8157
301 1 -1.1104 3.98014 19.4752 9.44208
303 2 2.2208 2.38731 17.9018 7.86009
304 1 -1.1104 3.83368 16.6975 9.24243
305 1 -1.1104 3.81638 13.9591 9.29397
307 1 -1.1104 1.17444 16.684 12.321
308 1 -1.1104 3.84487 16.6928 12.2167
309 2 2.2208 2.353 20.851 10.906
310 2 2.2208 2.4761 15.2849 10.8931
136 1 -1.1104 12.0938 16.5888 12.3101
290 1 -1.1104 6.56415 13.8848 9.52017
289 1 -1.1104 6.71355 16.7502 9.46521
296 1 -1.1104 6.61878 19.4222 12.1727
315 1 -1.1104 9.19411 16.6089 12.2585
203 1 -1.1104 9.4818 19.5003 12.3437
135 1 -1.1104 12.2554 19.3318 9.38467
165 2 2.2208 10.9346 20.9918 8.14343
316 2 2.2208 8.00385 20.9357 10.8365
541 2 2.2208 7.91338 18.1142 13.6208
327 2 2.2208 10.7927 15.2392 13.7587
9383 2 2.2208 13.7239 17.9566 13.6443
334 2 2.2208 13.6977 6.6971 13.6429
514 2 2.2208 5.31236 20.8638 13.7328
539 2 2.2208 10.9441 20.758 13.6281
326 2 2.2208 7.95922 6.59831 13.5925
9129 2 2.2208 13.6057 1.16272 13.506
339 2 2.2208 5.16097 12.3729 -0.289117
338 2 2.2208 2.34087 9.6058 -0.19854
331 2 2.2208 2.46585 20.8351 -0.314371
542 2 2.2208 10.8533 18.0441 -0.265117
343 2 2.2208 5.06504 1.26691 16.3624
344 1 -1.1104 1.02269 -2.91349 17.7345
345 1 -1.1104 0.928161 2.51494 17.9648
348 1 -1.1104 0.871696 -2.98693 14.8497
350 1 -1.1104 0.995165 2.48835 15.1249
356 1 -1.1104 1.06521 -0.0323286 17.8053
358 2 2.2208 5.29953 -1.63502 19.2341
359 2 2.2208 5.26259 4.04114 19.2582
360 1 -1.1104 0.900404 -0.287788 15.016
364 1 -1.1104 3.92595 -2.81285 17.8743
365 1 -1.1104 3.71033 2.75105 17.8437
366 2 2.2208 2.4773 1.19592 19.1585
367 1 -1.1104 3.62585 -2.9271 14.9555
369 1 -1.1104 3.78141 2.59659 15.0504
371 2 2.2208 2.33105 -1.54045 16.3483
373 1 -1.1104 3.79603 -0.289465 17.8562
374 1 -1.1104 3.81252 -0.075363 14.8385
8608 2 2.2208 2.33189 -4.3677 19.0787
372 2 2.2208 2.34127 4.02042 16.2752
357 1 -1.1104 6.55923 -0.153415 17.8119
354 1 -1.1104 6.58442 2.57423 15.0835
362 1 -1.1104 6.68383 -0.251297 14.9236
8644 2 2.2208 5.16457 -4.35889 16.3668
361 1 -1.1104 1.11691 -0.259518 20.5154
375 1 -1.1104 4.05016 -0.113814 20.5091
512 2 2.2208 5.19432 15.2314 13.6678
352 1 -1.1104 6.45997 -3.05783 14.9583
347 1 -1.1104 6.53923 2.55356 17.8524
370 1 -1.1104 3.87215 2.63434 20.692
368 1 -1.1104 3.68223 -2.94913 20.4767
349 1 -1.1104 0.899144 -2.99085 20.5409
351 1 -1.1104 0.976459 2.51814 20.5835
363 1 -1.1104 6.74645 -0.127366 20.6591
355 1 -1.1104 6.74922 2.69697 20.7904
346 1 -1.1104 6.62232 -3.14331 17.8264
386 2 2.2208 10.8471 1.03567 16.4149
387 1 -1.1104 12.1477 2.34792 17.7123
388 1 -1.1104 12.1627 -3.01005 15.3619
389 1 -1.1104 12.1835 2.45578 14.9598
391 1 -1.1104 12.2455 -0.552853 17.8144
392 2 2.2208 10.621 -1.57972 19.352
393 2 2.2208 10.8905 3.92955 19.2744
394 1 -1.1104 12.1816 -0.26878 14.9649
396 1 -1.1104 9.53179 -3.15618 17.8845
397 1 -1.1104 9.44063 2.70817 17.9182
398 2 2.2208 7.96828 1.32185 19.2392
399 1 -1.1104 9.31361 -2.96354 15.1491
401 1 -1.1104 9.45529 2.58251 14.9119
403 2 2.2208 7.88514 -1.56892 16.4025
405 1 -1.1104 9.39325 -0.407451 17.8892
406 1 -1.1104 9.51496 -0.263071 14.9768
404 2 2.2208 8.07745 3.82306 16.4292
9166 2 2.2208 -0.409813 20.8257 25.0167
407 1 -1.1104 9.41137 -0.28883 20.644
353 1 -1.1104 6.64283 -3.04953 20.5794
390 1 -1.1104 12.2751 2.40281 20.6026
8499 2 2.2208 8.00172 -4.30413 24.795
9168 2 2.2208 13.6536 3.93368 16.3599
416 2 2.2208 5.24078 6.79052 16.4134
417 2 2.2208 5.16118 12.4735 16.5439
418 1 -1.1104 0.996475 8.20787 17.8743
420 1 -1.1104 0.967089 8.27385 15.0326
424 1 -1.1104 0.909141 5.31583 18.0844
425 1 -1.1104 0.820645 11.1185 17.8664
428 2 2.2208 5.13012 9.58663 19.3082
429 1 -1.1104 1.1537 5.54889 15.2796
431 1 -1.1104 0.928589 11.0511 15.091
437 1 -1.1104 3.849 8.16789 17.8632
438 2 2.2208 2.39046 6.79135 19.2394
439 2 2.2208 2.28306 12.4154 19.2649
440 1 -1.1104 3.84131 8.36713 15.2567
442 2 2.2208 2.26193 9.62424 16.5908
443 1 -1.1104 3.84623 5.38545 17.7746
444 1 -1.1104 3.75939 11.0354 17.7732
445 1 -1.1104 3.77607 5.54983 14.8927
447 1 -1.1104 3.88655 11.2492 14.9645
426 1 -1.1104 6.71911 5.29013 18.0198
422 1 -1.1104 6.64926 8.03451 14.9274
433 1 -1.1104 6.715 5.29533 14.9986
446 1 -1.1104 3.91401 5.42087 20.5579
430 1 -1.1104 1.08144 5.42993 20.7287
435 1 -1.1104 6.68054 11.0032 15.0793
427 1 -1.1104 6.54381 11.0351 17.8527
434 1 -1.1104 6.60396 5.27993 20.7437
423 1 -1.1104 6.57327 8.09597 20.6568
421 1 -1.1104 1.02498 8.29219 20.7536
432 1 -1.1104 0.935847 11.0314 20.5782
441 1 -1.1104 3.80273 8.19698 20.7451
409 2 2.2208 13.5621 12.4339 19.2819
419 1 -1.1104 6.68211 8.31108 17.9402
454 2 2.2208 10.8578 6.75451 16.5526
455 2 2.2208 10.8715 12.334 16.5109
456 1 -1.1104 12.2337 8.15433 18.0009
457 1 -1.1104 12.2755 8.14471 15.2557
459 1 -1.1104 12.1607 5.18529 17.7628
460 1 -1.1104 12.23 11.1212 17.8151
461 2 2.2208 10.7288 9.56321 19.324
462 1 -1.1104 12.1531 5.39137 15.1208
464 1 -1.1104 12.1839 11.0051 15.1515
466 1 -1.1104 9.31155 8.29757 18.0941
467 2 2.2208 8.04962 6.78443 19.2671
468 2 2.2208 8.06217 12.3289 19.2888
469 1 -1.1104 9.45013 8.26167 15.18
471 2 2.2208 8.01671 9.57346 16.3301
472 1 -1.1104 9.50139 5.46835 17.8358
473 1 -1.1104 9.51015 11.0296 17.7781
474 1 -1.1104 9.38335 5.21187 15.0054
476 1 -1.1104 9.47619 11.066 15.0754
458 1 -1.1104 12.137 8.21433 20.7341
377 2 2.2208 13.5094 9.57913 22.1127
600 1 -1.1104 12.2012 13.8602 23.3927
513 2 2.2208 2.36273 18.1138 13.749
660 2 2.2208 13.6184 12.443 24.9218
602 2 2.2208 7.99366 17.9829 24.8628
479 2 2.2208 5.22172 18.0835 16.4551
480 1 -1.1104 0.948873 13.9052 17.9791
481 1 -1.1104 1.08267 19.4252 17.6609
484 1 -1.1104 0.845509 13.8097 15.1622
486 1 -1.1104 0.943767 19.4912 14.9721
492 1 -1.1104 1.03912 16.7438 18.0029
494 2 2.2208 5.24085 15.1494 19.2443
495 2 2.2208 5.30255 20.8336 19.3058
496 1 -1.1104 0.973095 16.6961 15.0343
500 1 -1.1104 3.9318 13.8524 17.8412
501 1 -1.1104 3.88637 19.4243 17.9576
502 2 2.2208 2.45315 18.117 19.2871
503 1 -1.1104 3.77817 13.9221 15.0166
505 1 -1.1104 3.92562 19.5113 15.1323
507 2 2.2208 2.39349 15.368 16.4736
508 2 2.2208 2.39535 20.822 16.4147
509 1 -1.1104 3.79917 16.7398 17.9472
510 1 -1.1104 3.80562 16.5973 15.0798
483 1 -1.1104 6.61796 19.2632 17.9323
506 1 -1.1104 3.91767 19.4254 20.6921
504 1 -1.1104 3.6612 13.7758 20.6738
497 1 -1.1104 1.10424 16.6853 20.7211
493 1 -1.1104 6.5222 16.5449 17.9399
491 1 -1.1104 6.63338 19.5244 20.7794
485 1 -1.1104 0.891961 13.8347 20.8688
413 2 2.2208 8.04136 20.8886 22.0904
450 2 2.2208 -0.302986 17.963 21.9879
498 1 -1.1104 6.61085 16.6875 15.0054
490 1 -1.1104 6.70972 19.5547 15.061
488 1 -1.1104 6.59582 13.8092 15.1047
489 1 -1.1104 6.42988 13.8635 20.6779
482 1 -1.1104 6.56551 13.889 18.0208
515 2 2.2208 10.7768 18.0226 16.3815
516 1 -1.1104 12.2728 13.9691 17.6984
517 1 -1.1104 12.2652 19.3209 17.8338
518 1 -1.1104 12.1974 13.7174 15.1922
520 1 -1.1104 12.257 19.3627 14.9792
522 1 -1.1104 12.1487 16.7169 17.9435
523 2 2.2208 10.7437 15.204 19.3252
524 2 2.2208 10.859 20.8045 19.1764
525 1 -1.1104 12.316 16.667 15.1048
527 1 -1.1104 9.29911 13.8324 17.9921
528 1 -1.1104 9.46582 19.4885 17.7353
529 2 2.2208 7.87083 18.0177 19.3263
530 1 -1.1104 9.46047 13.9548 15.1424
532 1 -1.1104 9.41014 19.4738 14.9998
534 2 2.2208 7.97341 15.3509 16.4735
535 2 2.2208 8.04961 20.9108 16.5136
536 1 -1.1104 9.18379 16.7343 17.8528
537 1 -1.1104 9.30912 16.6436 15.1274
538 1 -1.1104 9.325 16.5721 20.5534
526 1 -1.1104 12.1008 16.7148 20.6782
531 1 -1.1104 9.49216 13.7325 20.5482
661 2 2.2208 13.631 9.52951 27.7367
9208 2 2.2208 13.6372 1.29358 24.8828
543 2 2.2208 5.23203 1.28852 22.1143
544 1 -1.1104 0.900784 -3.04056 23.2681
545 1 -1.1104 0.832029 2.5878 23.2741
548 1 -1.1104 0.919446 -2.9825 26.1103
549 1 -1.1104 0.95873 2.62651 26.2287
552 1 -1.1104 1.04006 -0.260745 23.2545
554 2 2.2208 5.01462 -1.63521 24.7329
556 1 -1.1104 0.936935 -0.162475 26.1227
558 1 -1.1104 3.81547 -3.075 23.3095
559 1 -1.1104 3.81269 2.63107 23.4207
560 2 2.2208 2.25468 1.2767 24.7235
561 1 -1.1104 3.71514 -2.9738 26.1016
562 1 -1.1104 3.67496 2.42595 26.0436
563 2 2.2208 2.43307 -1.68862 21.9821
564 2 2.2208 2.53042 4.0699 21.9949
565 1 -1.1104 3.68319 -0.164939 23.3775
566 1 -1.1104 3.73913 -0.329904 26.0301
555 2 2.2208 5.09673 4.0544 24.7718
553 1 -1.1104 6.58239 -0.263043 23.4496
547 1 -1.1104 6.62416 2.4615 23.6242
333 2 2.2208 2.27419 4.0343 27.6644
557 1 -1.1104 6.61397 -0.218907 26.371
550 1 -1.1104 6.69621 -2.96461 26.1762
332 2 2.2208 2.30949 -1.52334 27.4506
540 2 2.2208 -0.278737 15.3475 24.924
577 2 2.2208 -0.320774 1.18298 21.79
395 1 -1.1104 12.1951 -0.536567 20.5356
402 1 -1.1104 9.39735 2.52972 20.8026
8457 2 2.2208 5.2913 -4.36338 27.5871
322 2 2.2208 10.8653 3.99833 13.6051
9352 2 2.2208 -0.384281 15.2075 19.2695
546 1 -1.1104 6.49533 -3.04756 23.2178
551 1 -1.1104 6.7453 2.63899 26.1901
400 1 -1.1104 9.49054 -3.16771 20.6939
579 2 2.2208 10.8246 1.20187 22.167
580 1 -1.1104 12.2912 -3.01112 23.078
581 1 -1.1104 12.0768 2.50785 23.4382
582 1 -1.1104 12.2364 -2.91892 26.0505
583 1 -1.1104 12.3763 2.59901 26.335
584 1 -1.1104 12.1703 -0.224829 23.316
585 2 2.2208 10.7986 -1.59579 24.7179
586 2 2.2208 10.7053 4.07079 24.8894
587 1 -1.1104 12.1977 -0.231243 26.2381
588 1 -1.1104 9.48922 -3.03653 23.3868
589 1 -1.1104 9.33873 2.51474 23.558
590 2 2.2208 7.95924 1.10111 24.8154
591 1 -1.1104 9.52977 -3.00332 26.2659
592 1 -1.1104 9.45231 2.70761 26.2881
593 2 2.2208 7.92051 -1.64339 21.9817
594 2 2.2208 8.00832 3.99943 22.1518
595 1 -1.1104 9.28154 -0.330069 23.5388
596 1 -1.1104 9.47211 -0.209856 26.1852
597 2 2.2208 10.9367 1.20396 27.7512
598 2 2.2208 8.0071 -1.50018 27.6162
336 2 2.2208 8.07539 4.05684 27.7557
328 2 2.2208 5.2704 1.20739 27.4162
415 1 -1.1104 9.36376 16.7571 23.5045
662 2 2.2208 13.5274 6.64922 24.8283
572 2 2.2208 -0.352423 3.95837 19.2648
448 1 -1.1104 3.72201 10.9765 20.6374
608 2 2.2208 5.24833 6.88615 22.0368
609 2 2.2208 5.13226 12.5267 22.1357
610 1 -1.1104 0.890682 8.24572 23.4648
612 1 -1.1104 0.982559 8.18944 26.4809
614 1 -1.1104 1.08334 5.49184 23.5256
615 1 -1.1104 0.919585 10.9334 23.3467
618 2 2.2208 5.07135 9.73278 24.9141
619 1 -1.1104 0.813128 5.54847 26.2157
620 1 -1.1104 0.971882 11.0223 26.3703
623 1 -1.1104 3.69212 8.38162 23.553
624 2 2.2208 2.25101 6.95733 24.9923
625 2 2.2208 2.36792 12.4432 24.8616
626 1 -1.1104 3.72419 8.15289 26.3635
627 2 2.2208 2.42299 9.61677 22.0805
628 1 -1.1104 3.79301 5.47691 23.3915
629 1 -1.1104 3.74216 10.9797 23.5845
630 1 -1.1104 3.75331 5.45132 26.2777
631 1 -1.1104 3.75576 10.9381 26.4172
611 1 -1.1104 6.63341 8.16524 23.4456
621 1 -1.1104 6.60695 5.42937 26.3406
337 2 2.2208 5.19633 6.64608 27.7249
616 1 -1.1104 6.58912 5.3294 23.4728
617 1 -1.1104 6.56419 10.9991 23.5873
9312 2 2.2208 13.472 18.1134 19.2398
478 2 2.2208 10.8839 15.3175 24.8931
470 1 -1.1104 9.27847 8.05836 20.9143
477 1 -1.1104 9.40406 10.877 20.7016
465 1 -1.1104 12.0652 11.0032 20.5732
436 1 -1.1104 6.5672 10.9939 20.5633
613 1 -1.1104 6.55183 8.25468 26.1919
673 1 -1.1104 6.59408 13.8161 23.3412
475 1 -1.1104 9.49397 5.32162 20.6607
622 1 -1.1104 6.55392 11.128 26.272
463 1 -1.1104 12.2628 5.39978 20.7614
639 1 -1.1104 9.42304 11.0105 26.2878
640 1 -1.1104 9.33541 5.48884 26.4529
641 1 -1.1104 9.26646 11.142 23.48
642 1 -1.1104 9.4449 5.38974 23.4067
643 2 2.2208 7.94411 9.64435 22.1105
644 1 -1.1104 9.38709 8.15772 26.2442
645 2 2.2208 7.89115 12.5462 24.8729
646 2 2.2208 7.98143 6.85433 24.899
647 2 2.2208 10.7662 6.72297 22.0224
648 2 2.2208 10.8645 12.468 22.0617
649 1 -1.1104 12.0558 8.02743 23.5738
650 1 -1.1104 12.2337 7.98974 26.2827
651 1 -1.1104 12.2005 5.33821 23.5395
652 1 -1.1104 12.1228 10.8305 23.4162
653 2 2.2208 10.6741 9.64099 24.9047
654 1 -1.1104 12.1808 5.26803 26.2317
655 1 -1.1104 12.2803 10.907 26.39
656 1 -1.1104 9.37103 8.24439 23.5239
383 1 -1.1104 9.36323 13.9136 26.1413
9313 2 2.2208 13.6728 20.8025 16.4164
9169 2 2.2208 13.7768 -1.64198 16.2735
341 2 2.2208 7.89503 9.63936 27.6471
487 1 -1.1104 0.964552 19.541 20.7421
511 1 -1.1104 3.91826 16.5959 20.6674
499 1 -1.1104 6.67015 16.7218 20.756
575 1 -1.1104 6.62203 16.692 23.4545
664 1 -1.1104 6.63051 13.9276 26.3775
666 1 -1.1104 6.68869 16.5723 26.4046
672 2 2.2208 5.1737 15.1228 24.957
671 2 2.2208 5.08476 20.8059 24.9817
669 1 -1.1104 1.04597 13.9026 26.2281
567 2 2.2208 2.44507 15.1454 22.1391
568 2 2.2208 2.33162 20.7875 22.0726
569 1 -1.1104 3.80355 16.5742 23.4945
571 1 -1.1104 1.1476 16.519 23.5325
599 1 -1.1104 3.92443 13.6417 26.2378
632 1 -1.1104 3.87694 16.4963 26.3177
633 2 2.2208 2.43405 17.9531 25.0591
634 1 -1.1104 3.85369 19.4225 26.3731
635 2 2.2208 5.28015 17.9898 22.1436
658 1 -1.1104 1.16204 13.7366 23.5491
659 1 -1.1104 0.795817 19.4258 23.5904
663 1 -1.1104 3.70939 19.3558 23.7306
665 1 -1.1104 3.88765 13.8256 23.543
667 1 -1.1104 1.11982 19.5282 26.4014
668 1 -1.1104 0.979905 16.605 26.4433
342 2 2.2208 10.8334 12.3822 27.6473
603 1 -1.1104 6.59572 19.2821 26.2523
670 1 -1.1104 6.64738 19.5474 23.4556
570 2 2.2208 13.7087 9.61944 16.565
578 2 2.2208 10.8635 18.1012 22.0541
601 1 -1.1104 9.46956 19.7372 23.4365
385 2 2.2208 8.00297 15.2449 22.0242
384 1 -1.1104 9.47893 19.4855 26.2138
605 1 -1.1104 12.3146 19.3711 23.4962
573 1 -1.1104 12.3805 16.5507 26.1933
521 1 -1.1104 12.1124 19.5085 20.794
533 1 -1.1104 9.32411 19.4939 20.7489
519 1 -1.1104 12.1574 13.8743 20.6016
606 1 -1.1104 12.2982 13.733 26.3063
449 1 -1.1104 9.59036 16.5499 26.4444
607 1 -1.1104 12.204 19.444 26.449
452 2 2.2208 10.8856 20.8242 24.8914
574 1 -1.1104 9.39549 13.8984 23.4123
638 1 -1.1104 12.3049 16.6173 23.5118
330 2 2.2208 5.21758 18.0762 27.7257
325 2 2.2208 7.97403 12.4603 13.784
9388 2 2.2208 13.6255 20.8907 27.5843
451 2 2.2208 2.23918 12.4076 13.6955
414 2 2.2208 10.7892 -1.69611 13.6425
657 2 2.2208 10.7482 6.86557 27.6153
323 2 2.2208 2.26746 6.78167 13.6559
453 2 2.2208 10.8709 9.73636 13.6856
674 2 2.2208 5.20614 23.6412 5.14672
675 2 2.2208 5.05346 29.3308 5.12647
676 1 -1.1104 0.748556 25.0952 1.0472
677 1 -1.1104 0.999328 24.9992 4.01311
678 1 -1.1104 1.03098 22.1448 1.06575
679 1 -1.1104 0.957925 27.9451 0.951943
680 2 2.2208 5.07162 26.5681 2.4599
681 1 -1.1104 0.90098 22.1655 3.88625
682 1 -1.1104 1.01817 27.7695 3.79747
683 1 -1.1104 3.59835 25.2423 1.16242
684 2 2.2208 2.30341 23.7048 2.44388
685 2 2.2208 2.34647 29.3376 2.41647
686 1 -1.1104 3.71921 25.0952 3.78448
687 2 2.2208 2.16068 26.5157 5.21788
688 1 -1.1104 3.79412 22.3068 0.897689
689 1 -1.1104 3.71656 27.866 0.992987
690 1 -1.1104 3.64197 22.4082 3.55056
691 1 -1.1104 3.69183 27.7827 3.81797
698 1 -1.1104 6.53314 27.9624 0.895178
697 1 -1.1104 6.64397 22.3739 1.00566
700 1 -1.1104 6.48101 27.8879 3.83375
823 1 -1.1104 3.75771 27.8302 6.60268
815 1 -1.1104 0.881288 24.9445 6.71893
695 1 -1.1104 6.55271 25.0937 0.992194
699 1 -1.1104 6.65642 22.4188 3.79998
819 1 -1.1104 6.56603 22.178 6.66401
820 1 -1.1104 6.39689 27.7829 6.53824
960 2 2.2208 -0.375004 46.0356 10.719
1006 2 2.2208 5.13797 23.6567 -0.310965
1548 1 -1.1104 1.05085 47.3253 11.9664
1408 1 -1.1104 9.29876 47.6505 3.7614
696 1 -1.1104 6.67794 25.1393 3.78088
701 2 2.2208 10.8708 23.5036 5.05016
702 2 2.2208 10.9567 29.3262 5.34635
703 1 -1.1104 12.239 24.9424 1.03652
704 1 -1.1104 12.2506 24.9681 3.77697
705 1 -1.1104 12.1885 22.1593 1.03833
706 1 -1.1104 12.2011 27.8355 1.06331
707 2 2.2208 10.9476 26.3507 2.44545
708 1 -1.1104 12.3369 22.1388 3.69922
709 1 -1.1104 12.2978 27.6735 3.76652
710 1 -1.1104 9.36117 25.0629 0.737332
711 2 2.2208 8.04453 23.6618 2.48088
712 2 2.2208 7.97814 29.2764 2.47678
713 1 -1.1104 9.41356 24.9421 3.87124
714 2 2.2208 8.00055 26.6473 5.23769
715 1 -1.1104 9.40032 22.348 1.09111
716 1 -1.1104 9.54095 27.7041 0.939579
717 1 -1.1104 9.39728 22.0515 3.75965
718 1 -1.1104 9.47806 27.7932 3.57672
848 1 -1.1104 12.1272 24.8378 6.43915
850 1 -1.1104 12.3988 28.105 6.51126
816 1 -1.1104 6.87899 25.0852 6.62471
1012 2 2.2208 7.90938 26.5786 -0.3386
1016 2 2.2208 13.7313 37.7627 -0.41804
1546 1 -1.1104 3.58118 47.6995 6.5883
1594 1 -1.1104 9.54126 47.3593 12.1887
723 2 2.2208 5.13875 34.769 5.19037
724 1 -1.1104 0.989164 30.6443 1.1498
725 1 -1.1104 0.941002 36.1952 1.16379
727 1 -1.1104 0.934897 30.5617 3.91202
728 1 -1.1104 1.13899 36.2262 3.91298
730 1 -1.1104 1.14165 33.4026 0.925395
731 2 2.2208 5.32364 32.1161 2.44382
732 2 2.2208 5.21729 37.7268 2.29206
733 1 -1.1104 0.982188 33.5272 3.91695
735 1 -1.1104 3.85214 30.6299 0.970408
736 1 -1.1104 3.69586 36.1683 0.829965
737 2 2.2208 2.53128 34.848 2.34746
738 1 -1.1104 3.7301 30.7484 3.76622
739 1 -1.1104 3.97514 36.2253 3.63089
740 2 2.2208 2.31328 32.0646 5.24214
741 2 2.2208 2.40462 37.6129 5.21054
742 1 -1.1104 3.93856 33.4985 1.01371
743 1 -1.1104 3.79896 33.349 3.71054
870 1 -1.1104 0.898316 36.3469 6.68876
874 1 -1.1104 6.60067 33.3909 6.66791
876 1 -1.1104 3.79318 35.933 6.74972
877 1 -1.1104 3.82682 33.3721 6.4236
873 1 -1.1104 0.984745 33.3428 6.67689
748 1 -1.1104 6.62038 33.452 1.06035
726 1 -1.1104 6.62724 36.3505 1.0891
729 1 -1.1104 6.70846 36.2194 3.692
871 1 -1.1104 6.60173 30.6221 6.65253
788 1 -1.1104 3.61407 38.8414 0.972075
872 1 -1.1104 6.59448 36.1118 6.50644
1584 1 -1.1104 12.2786 47.4228 12.3102
1553 1 -1.1104 6.63632 47.4499 9.4339
1550 1 -1.1104 6.65862 47.2526 12.1528
747 1 -1.1104 6.71573 30.64 3.70813
734 1 -1.1104 6.54067 33.4169 3.8587
746 1 -1.1104 6.67232 30.6446 0.873537
749 2 2.2208 10.8848 34.745 5.27735
750 1 -1.1104 11.9738 30.7324 0.97352
751 1 -1.1104 12.3894 36.3107 1.06877
752 1 -1.1104 12.1613 30.4763 3.71074
753 1 -1.1104 12.3255 36.0943 3.88847
754 1 -1.1104 12.3238 33.4803 0.962696
755 2 2.2208 10.6167 31.9757 2.50649
756 2 2.2208 10.8732 37.5793 2.50403
757 1 -1.1104 12.018 33.2554 3.9425
758 1 -1.1104 9.17668 30.581 0.97754
759 1 -1.1104 9.52866 36.1494 1.01213
760 2 2.2208 8.05694 34.8664 2.42775
761 1 -1.1104 9.41426 30.5335 3.94556
762 1 -1.1104 9.47791 36.2833 3.88878
763 2 2.2208 7.96933 32.0832 5.30187
764 2 2.2208 8.00474 37.6444 5.29283
765 1 -1.1104 9.53448 33.3799 1.07185
766 1 -1.1104 9.30703 33.3956 4.02435
903 1 -1.1104 12.105 36.1879 6.57608
904 1 -1.1104 12.2576 33.3333 6.78142
906 1 -1.1104 9.42118 36.1207 6.6562
9801 2 2.2208 13.7103 43.4305 -0.433827
980 2 2.2208 13.6086 31.9163 5.31073
979 2 2.2208 13.6636 37.5891 5.21409
1316 2 2.2208 7.95971 32.0785 -0.358452