ITEM: TIMESTEP
20000
ITEM: NUMBER OF ATOMS
17820
ITEM: BOX BOUNDS pp pp pp
-3.6329765715270818e-01 2.7703297657152728e+01
-4.3675383136942711e+00 3.3244753831369184e+02
-3.6743436372218441e-01 2.7707434363722236e+01
ITEM: ATOMS id type q x y z
1 2 2.2208 5.26209 1.21271 5.16589
2 1 -1.1104 1.17563 -2.9599 1.04292
3 1 -1.1104 1.18538 2.62757 0.872349
6 1 -1.1104 1.04394 -3.08336 3.90424
7 1 -1.1104 1.1036 2.65725 3.74916
10 1 -1.1104 1.21046 -0.295542 0.962862
12 2 2.2208 5.37736 -1.57417 2.47666
13 2 2.2208 5.30742 4.0416 2.47901
14 1 -1.1104 1.27 -0.222086 3.79602
16 1 -1.1104 3.96562 -3.00576 0.993771
17 1 -1.1104 4.02344 2.52779 1.09495
18 2 2.2208 2.59504 1.28428 2.40033
19 1 -1.1104 3.82909 -2.87303 3.80113
20 1 -1.1104 3.89815 2.75619 3.86922
21 2 2.2208 2.51476 -1.68541 5.30278
22 2 2.2208 2.6007 4.12087 5.27953
23 1 -1.1104 3.88011 -0.349084 1.15284
24 1 -1.1104 4.04765 -0.089021 3.72352
8449 2 2.2208 10.8823 -4.29398 10.9351
8447 2 2.2208 5.30053 -4.3219 10.9575
167 1 -1.1104 1.1882 2.5314 6.47204
166 1 -1.1104 0.947017 -3.12007 6.65525
174 1 -1.1104 3.81883 -0.168337 6.58967
170 1 -1.1104 1.18544 -0.209577 6.54249
4 1 -1.1104 6.89106 -2.89877 1.17051
9 1 -1.1104 6.73306 2.65858 3.9014
9122 2 2.2208 -0.274032 1.21226 5.12108
53 2 2.2208 13.6268 9.53971 5.28511
173 1 -1.1104 3.93094 2.47714 6.68469
169 1 -1.1104 6.79916 2.50765 6.61544
337 2 2.2208 5.24911 6.71433 -0.369326
316 2 2.2208 8.13542 20.7518 10.9897
312 2 2.2208 -0.36947 18.0734 10.8777
15 1 -1.1104 6.85963 -0.243645 3.86968
11 1 -1.1104 6.75194 -0.0968611 0.984349
5 1 -1.1104 6.82563 2.74013 1.10345
597 2 2.2208 10.9965 1.06077 -0.345431
8 1 -1.1104 6.60929 -3.07886 3.97405
31 2 2.2208 10.9363 1.09303 5.26339
32 1 -1.1104 12.4149 -3.0266 0.948782
33 1 -1.1104 12.5329 2.70149 1.0509
34 1 -1.1104 12.3018 -2.95491 3.856
35 1 -1.1104 12.3477 2.56367 3.96479
36 1 -1.1104 12.3587 -0.381366 0.873634
37 2 2.2208 10.9365 -1.64685 2.42554
38 2 2.2208 10.9809 4.00792 2.45453
39 1 -1.1104 12.3943 -0.23422 3.73635
40 1 -1.1104 9.65107 -3.00151 1.03156
41 1 -1.1104 9.64586 2.33038 1.14601
42 2 2.2208 8.2347 1.17953 2.54575
43 1 -1.1104 9.58516 -3.04189 3.97136
44 1 -1.1104 9.54691 2.50445 3.96205
45 2 2.2208 8.25279 -1.68987 5.3319
46 2 2.2208 8.04769 4.08223 5.24542
47 1 -1.1104 9.4207 -0.344403 1.16969
48 1 -1.1104 9.60174 -0.378445 3.85979
336 2 2.2208 8.15792 3.88094 -0.211557
27 1 -1.1104 12.1597 13.7456 12.1627
207 1 -1.1104 12.284 -0.235096 6.61917
205 1 -1.1104 12.3654 -3.09334 6.80706
210 1 -1.1104 9.53323 -0.359958 6.72919
290 1 -1.1104 6.55118 13.7166 9.48605
318 2 2.2208 5.2241 -1.5033 13.736
598 2 2.2208 8.28916 -1.62585 -0.317145
54 2 2.2208 5.33863 6.81721 5.20881
55 2 2.2208 5.26886 12.4625 5.22092
56 1 -1.1104 1.06005 8.33828 1.13223
58 1 -1.1104 1.18063 8.21989 3.84556
60 1 -1.1104 1.14687 5.33638 0.970939
61 1 -1.1104 1.08727 11.0104 1.27994
66 2 2.2208 5.22534 9.63055 2.53096
67 1 -1.1104 0.917029 5.4187 3.79176
68 1 -1.1104 0.847267 10.9983 3.94693
71 1 -1.1104 3.83314 8.04812 1.04895
72 2 2.2208 2.4555 6.82329 2.49348
73 2 2.2208 2.57289 12.4972 2.39832
74 1 -1.1104 4.02472 8.23789 3.88455
75 2 2.2208 2.42852 9.63261 5.23993
76 1 -1.1104 4.0001 5.45921 1.23899
77 1 -1.1104 3.92632 11.0141 1.06204
79 1 -1.1104 3.84344 5.53588 3.94168
80 1 -1.1104 3.84238 11.0665 3.83715
83 2 2.2208 -0.378688 12.3448 5.29827
59 1 -1.1104 6.7982 8.21188 3.79622
236 1 -1.1104 1.0841 5.42299 6.71047
62 1 -1.1104 1.17549 10.9289 6.65914
239 1 -1.1104 4.06621 5.21409 6.5544
234 1 -1.1104 1.04636 8.15263 6.63006
9058 2 2.2208 -0.2548 6.93358 11.0662
28 2 2.2208 -0.267267 9.67249 8.18369
233 1 -1.1104 9.5244 19.5523 9.45021
288 1 -1.1104 6.54097 19.339 9.43941
311 1 -1.1104 12.2883 16.3296 9.40701
63 1 -1.1104 6.72452 5.29745 1.10986
57 1 -1.1104 6.67147 7.99401 0.941241
69 1 -1.1104 6.70038 5.39847 3.893
70 1 -1.1104 6.64859 11.1232 3.87658
64 1 -1.1104 6.79793 10.9809 1.07513
84 2 2.2208 10.9623 6.8055 5.2005
85 2 2.2208 10.8208 12.2554 5.25649
86 1 -1.1104 12.3388 8.10386 0.97299
87 1 -1.1104 12.2483 8.0493 3.79947
88 1 -1.1104 12.5228 5.37179 0.902847
89 1 -1.1104 12.345 11.0476 1.03145
91 2 2.2208 10.907 9.39039 2.40155
92 1 -1.1104 12.4324 5.30838 3.83896
93 1 -1.1104 12.207 10.936 3.85031
94 1 -1.1104 9.55461 8.05529 1.01834
95 2 2.2208 8.1 6.74693 2.46279
96 2 2.2208 8.26869 12.3752 2.4795
97 1 -1.1104 9.44211 7.97404 3.88806
98 2 2.2208 8.08312 9.61206 5.21807
99 1 -1.1104 9.61248 5.26909 1.03396
100 1 -1.1104 9.59219 10.9408 1.02128
102 1 -1.1104 9.59932 5.33733 3.86797
103 1 -1.1104 9.40948 10.8074 3.78832
137 2 2.2208 10.9033 15.1383 7.89048
266 1 -1.1104 12.3348 5.43522 6.66902
237 1 -1.1104 6.71993 5.37572 6.72996
269 1 -1.1104 9.54857 5.39788 6.70257
143 1 -1.1104 12.3646 13.7886 6.63757
315 1 -1.1104 9.42065 16.5946 12.1009
232 1 -1.1104 9.49054 13.8173 9.29201
106 2 2.2208 5.20543 17.9705 5.3005
107 1 -1.1104 1.04088 13.8154 1.20055
109 1 -1.1104 0.982768 19.4011 0.918698
113 1 -1.1104 1.01636 13.7304 4.005
114 1 -1.1104 1.05043 19.4747 3.84514
116 1 -1.1104 0.982343 16.6296 1.19974
119 2 2.2208 5.28387 15.2887 2.41189
120 2 2.2208 5.1037 20.9644 2.44662
121 1 -1.1104 1.04841 16.6347 4.02109
123 1 -1.1104 3.88529 13.9573 1.1025
125 1 -1.1104 3.83426 19.5521 1.09094
127 2 2.2208 2.4209 18.195 2.47659
128 1 -1.1104 3.98339 13.9486 3.81213
129 1 -1.1104 3.84429 19.6846 3.96223
130 2 2.2208 2.45835 15.2477 5.19855
131 2 2.2208 2.39295 20.8453 5.16956
132 1 -1.1104 3.73043 16.7912 1.03605
134 1 -1.1104 3.76841 16.8255 3.73027
317 2 2.2208 8.10438 15.2466 10.6929
124 1 -1.1104 3.76659 13.841 6.70252
117 1 -1.1104 1.11664 16.5541 6.7906
122 1 -1.1104 6.7472 16.5803 3.84966
133 1 -1.1104 3.94615 16.6064 6.61809
126 1 -1.1104 3.66877 19.4101 6.77442
289 1 -1.1104 6.63063 16.5774 9.33741
165 2 2.2208 10.9376 20.7478 8.08691
138 1 -1.1104 6.62585 19.5452 1.15235
115 1 -1.1104 6.67474 13.8973 3.93151
139 1 -1.1104 6.60675 19.2558 3.82631
154 1 -1.1104 9.5104 13.6709 6.66266
110 1 -1.1104 6.82975 13.7792 1.16927
140 1 -1.1104 6.51214 16.6378 0.915611
141 2 2.2208 10.9142 17.9905 5.21244
142 1 -1.1104 12.3381 13.7018 1.14633
144 1 -1.1104 12.3004 19.3739 1.07063
146 1 -1.1104 12.1856 13.7044 3.93314
147 1 -1.1104 12.284 19.3057 3.87439
148 1 -1.1104 12.3272 16.445 1.25357
150 2 2.2208 10.8826 15.1147 2.55832
151 2 2.2208 10.8611 20.8179 2.39355
152 1 -1.1104 12.2287 16.6529 3.95778
153 1 -1.1104 9.50907 13.6973 1.07027
155 1 -1.1104 9.44417 19.3316 1.0172
157 2 2.2208 8.07128 17.9248 2.36936
158 1 -1.1104 9.40036 13.7218 3.89829
159 1 -1.1104 9.6214 19.3539 3.7736
160 2 2.2208 8.02143 15.1552 5.22036
161 2 2.2208 8.00476 20.7656 5.17369
162 1 -1.1104 9.38459 16.479 1.04109
164 1 -1.1104 9.56217 16.614 3.80627
156 1 -1.1104 9.39684 19.5116 6.58539
112 1 -1.1104 6.45738 19.3772 6.69088
111 1 -1.1104 6.65307 13.7719 6.62668
306 1 -1.1104 6.67857 16.575 12.1872
26 2 2.2208 10.9012 17.9092 10.7936
171 1 -1.1104 6.64942 -0.352152 6.67739
172 1 -1.1104 3.94595 -3.08471 6.7221
118 1 -1.1104 6.69492 16.6034 6.64656
200 2 2.2208 -0.312645 -1.59725 8.10405
199 2 2.2208 -0.228763 4.00572 8.07539
201 2 2.2208 -0.127013 1.08747 10.7824
175 2 2.2208 5.18331 1.18727 10.9153
176 1 -1.1104 0.895115 -2.90748 12.2085
177 1 -1.1104 0.953793 2.48684 12.0862
180 1 -1.1104 1.07772 -2.96252 9.41619
181 1 -1.1104 1.06747 2.53115 9.2509
184 1 -1.1104 1.06471 -0.313381 12.2112
186 2 2.2208 5.27404 -1.60421 7.96771
187 2 2.2208 5.29757 4.02386 8.05284
188 1 -1.1104 1.12269 -0.306953 9.35199
190 1 -1.1104 3.77994 -2.85379 12.379
191 1 -1.1104 3.90069 2.61337 12.4022
192 2 2.2208 2.46301 1.21777 7.96894
193 1 -1.1104 3.90225 -3.03515 9.53183
194 1 -1.1104 3.76398 2.75563 9.4162
195 2 2.2208 2.49978 -1.66224 10.8193
197 1 -1.1104 3.74277 -0.162574 12.1407
198 1 -1.1104 3.69663 -0.206534 9.48658
196 2 2.2208 2.477 4.11914 10.8878
185 1 -1.1104 6.66043 -0.0486526 12.2415
202 1 -1.1104 9.49248 13.7756 12.1215
183 1 -1.1104 6.59085 2.46875 9.52425
178 1 -1.1104 6.65836 -2.99433 12.4052
189 1 -1.1104 6.58144 -0.248759 9.4911
136 1 -1.1104 12.2225 16.6766 12.2101
104 1 -1.1104 12.2754 19.4141 12.1627
206 1 -1.1104 12.4558 2.68648 6.78337
182 1 -1.1104 6.73337 -2.99072 9.53526
208 1 -1.1104 9.54968 -3.09555 6.89655
168 1 -1.1104 6.82389 -3.00724 6.7485
209 1 -1.1104 9.65124 2.43971 6.71684
179 1 -1.1104 6.6987 2.70211 12.2621
211 2 2.2208 11.0004 1.10592 10.9166
212 1 -1.1104 12.2144 -3.09913 12.5207
213 1 -1.1104 12.272 2.50999 12.3935
214 1 -1.1104 12.429 -2.98097 9.59586
215 1 -1.1104 12.3284 2.50182 9.69205
216 1 -1.1104 12.326 -0.372672 12.2167
217 2 2.2208 10.9234 -1.79326 8.1742
218 2 2.2208 10.9043 4.02349 8.14717
219 1 -1.1104 12.3525 -0.137401 9.46129
220 1 -1.1104 9.47277 -2.89732 12.3127
221 1 -1.1104 9.57047 2.64804 12.2813
222 2 2.2208 8.06136 1.08794 8.07885
223 1 -1.1104 9.50431 -2.86093 9.63699
224 1 -1.1104 9.5956 2.59497 9.32121
225 2 2.2208 8.03701 -1.52206 10.8804
226 2 2.2208 8.01456 3.87897 10.8929
227 1 -1.1104 9.44311 -0.15818 12.4214
228 1 -1.1104 9.49945 -0.131431 9.55079
135 1 -1.1104 12.2615 19.3238 9.50076
203 1 -1.1104 9.53845 19.2538 12.2717
163 1 -1.1104 9.42308 16.6521 6.46846
149 1 -1.1104 12.3065 16.5631 6.60193
78 1 -1.1104 3.93155 11.1057 6.49492
332 2 2.2208 2.58206 -1.69763 -0.254895
231 2 2.2208 8.00048 18.0205 7.91247
328 2 2.2208 5.36344 1.06748 -0.425545
238 1 -1.1104 3.90638 8.06817 6.58036
240 2 2.2208 5.39607 6.83195 10.9091
241 2 2.2208 5.13048 12.4468 10.9754
242 1 -1.1104 1.07632 8.29554 12.29
244 1 -1.1104 1.23086 8.2315 9.46317
246 1 -1.1104 1.25292 5.47366 12.3023
247 1 -1.1104 0.914932 11.0452 12.4157
250 2 2.2208 5.1651 9.54218 7.94429
251 1 -1.1104 1.12751 5.41589 9.46587
252 1 -1.1104 1.17317 11.0676 9.50174
255 1 -1.1104 3.83321 8.19845 12.3637
256 2 2.2208 2.46251 6.81269 8.03755
257 2 2.2208 2.45659 12.4085 8.07897
258 1 -1.1104 3.82282 8.21381 9.46839
259 2 2.2208 2.53974 9.55995 10.9521
260 1 -1.1104 3.95015 5.43514 12.135
261 1 -1.1104 3.76613 11.1159 12.2519
262 1 -1.1104 3.86078 5.49408 9.36862
263 1 -1.1104 3.88831 11.0488 9.15985
9388 2 2.2208 13.5615 20.7038 -0.402825
254 1 -1.1104 6.56773 11.0048 9.54366
412 2 2.2208 7.92104 15.2168 -0.343912
9124 2 2.2208 -0.288604 4.01372 2.4205
90 1 -1.1104 12.2179 10.9959 6.59655
101 1 -1.1104 9.50355 11.0376 6.49962
235 1 -1.1104 6.64212 8.10767 6.60878
267 1 -1.1104 9.43494 8.32848 6.77186
65 1 -1.1104 6.70868 10.794 6.75443
249 1 -1.1104 6.64065 10.9028 12.3623
314 1 -1.1104 9.57356 16.5939 9.36108
253 1 -1.1104 6.65629 5.34877 9.54075
245 1 -1.1104 6.55871 8.18204 9.45592
265 1 -1.1104 12.3323 8.14706 6.7421
248 1 -1.1104 6.77977 5.22333 12.3674
243 1 -1.1104 6.69852 8.12395 12.5488
264 1 -1.1104 9.41661 10.9228 9.49091
268 1 -1.1104 9.36993 5.20635 9.5701
270 1 -1.1104 9.58435 11.1879 12.4094
271 1 -1.1104 9.55669 5.48499 12.334
272 2 2.2208 8.04475 9.67574 10.9576
273 1 -1.1104 9.51762 8.23206 9.40362
274 2 2.2208 7.99895 12.3449 8.09122
275 2 2.2208 8.07155 6.77056 8.16578
276 2 2.2208 10.8643 6.72303 10.8594
277 2 2.2208 10.9067 12.3543 10.7309
278 1 -1.1104 12.2797 8.11415 12.3881
279 1 -1.1104 12.3951 8.2596 9.66879
280 1 -1.1104 12.2146 5.24421 12.2862
281 1 -1.1104 12.308 10.8992 12.3327
282 2 2.2208 10.9177 9.57266 8.17487
283 1 -1.1104 12.3535 5.46967 9.50781
284 1 -1.1104 12.306 10.8725 9.42587
285 1 -1.1104 9.45715 8.35027 12.1345
145 1 -1.1104 12.2774 19.3441 6.77298
9121 2 2.2208 -0.260934 -1.67514 2.53899
108 1 -1.1104 1.09551 13.6253 6.74516
81 2 2.2208 -0.35044 6.78981 5.36947
302 1 -1.1104 0.933629 19.2052 6.63263
105 1 -1.1104 12.3867 13.5785 9.26394
286 1 -1.1104 3.81797 19.2288 12.249
287 1 -1.1104 3.78504 13.9155 12.4001
291 1 -1.1104 0.950094 19.4462 9.53223
292 1 -1.1104 1.01653 16.6342 9.48347
293 2 2.2208 5.17334 20.722 8.12444
294 1 -1.1104 1.11518 13.6976 9.57946
295 2 2.2208 5.21633 15.2298 8.11857
298 1 -1.1104 1.03165 19.4579 12.3808
299 1 -1.1104 1.03309 13.5935 12.3204
300 2 2.2208 5.26357 18.0081 10.8981
301 1 -1.1104 3.92406 19.3151 9.51464
303 2 2.2208 2.48532 17.9387 8.07291
304 1 -1.1104 3.85985 16.5528 9.56404
305 1 -1.1104 3.83813 13.6931 9.61741
307 1 -1.1104 0.934877 16.4807 12.1221
308 1 -1.1104 3.86 16.5272 12.4174
309 2 2.2208 2.41367 20.783 10.8263
310 2 2.2208 2.42215 15.0362 10.9104
296 1 -1.1104 6.72439 19.3486 12.324
297 1 -1.1104 6.62238 13.706 12.3951
539 2 2.2208 10.8057 20.7235 13.6706
8463 2 2.2208 2.41458 -4.52466 13.5569
327 2 2.2208 10.9022 15.1502 13.5534
9136 2 2.2208 -0.127658 1.133 -0.359243
9127 2 2.2208 13.6664 15.1347 -0.254539
514 2 2.2208 5.27503 20.7034 13.6489
322 2 2.2208 10.8953 3.92498 13.6638
341 2 2.2208 8.01637 9.5651 -0.263056
339 2 2.2208 5.19543 12.3998 -0.310647
329 2 2.2208 2.36619 15.4928 -0.234099
9354 2 2.2208 -0.262859 15.0734 13.7203
343 2 2.2208 5.19736 1.1138 16.5723
344 1 -1.1104 1.07665 -3.16425 17.934
345 1 -1.1104 0.915802 2.51223 18.0088
348 1 -1.1104 1.07037 -3.17102 15.0672
350 1 -1.1104 0.934547 2.41688 15.2145
356 1 -1.1104 0.967024 -0.212917 18.0174
358 2 2.2208 5.28943 -1.76525 19.3199
359 2 2.2208 5.42375 3.97292 19.3283
360 1 -1.1104 0.911601 -0.224656 15.1988
364 1 -1.1104 3.97137 -3.15011 17.9985
365 1 -1.1104 3.92464 2.59193 18.004
366 2 2.2208 2.56456 1.22095 19.4271
367 1 -1.1104 3.75292 -3.01185 15.0719
369 1 -1.1104 3.90517 2.68176 15.16
371 2 2.2208 2.49442 -1.71732 16.5182
372 2 2.2208 2.31508 3.94997 16.4087
373 1 -1.1104 3.83979 -0.252475 17.8942
374 1 -1.1104 3.81768 -0.17025 14.9826
379 2 2.2208 -0.34911 1.04704 16.5648
9166 2 2.2208 -0.416536 20.7769 24.9362
368 1 -1.1104 4.08096 -2.91815 20.7824
352 1 -1.1104 6.52497 -2.91562 15.1873
362 1 -1.1104 6.58662 -0.216861 15.1026
370 1 -1.1104 4.05909 2.56116 20.6568
349 1 -1.1104 1.09342 -3.10151 20.6998
361 1 -1.1104 1.08827 -0.26799 20.7415
375 1 -1.1104 3.84157 -0.173292 20.8242
572 2 2.2208 -0.314077 3.94031 19.2962
9373 2 2.2208 13.6575 3.97672 22.1473
9353 2 2.2208 -0.272851 18.0056 16.5195
357 1 -1.1104 6.7795 -0.421185 18.0959
347 1 -1.1104 6.54093 2.38604 17.9644
354 1 -1.1104 6.67505 2.66854 15.1215
346 1 -1.1104 6.79003 -3.06682 17.9179
386 2 2.2208 10.8976 1.11108 16.4625
387 1 -1.1104 12.426 2.49706 18.0859
388 1 -1.1104 12.1937 -2.91789 15.6537
389 1 -1.1104 12.4377 2.60948 15.1283
391 1 -1.1104 12.3414 -0.37375 17.8826
392 2 2.2208 10.8135 -1.45093 19.2746
393 2 2.2208 10.8254 3.92342 19.3192
394 1 -1.1104 12.3214 -0.129797 14.8507
396 1 -1.1104 9.59983 -2.9501 17.9325
397 1 -1.1104 9.40911 2.51938 17.9096
398 2 2.2208 7.99912 1.13258 19.4611
399 1 -1.1104 9.37791 -3.11129 15.221
401 1 -1.1104 9.57428 2.56354 15.1106
403 2 2.2208 8.04533 -1.57987 16.6189
405 1 -1.1104 9.50114 -0.0395491 18.0653
406 1 -1.1104 9.61402 -0.30427 15.119
404 2 2.2208 8.08075 3.96644 16.4864
9352 2 2.2208 -0.325032 15.2435 19.4008
395 1 -1.1104 12.1781 -0.580208 20.6642
400 1 -1.1104 9.83215 -2.9925 20.7186
353 1 -1.1104 6.89359 -3.18819 20.707
519 1 -1.1104 12.2204 13.948 20.6502
9313 2 2.2208 13.6873 20.8227 16.434
324 2 2.2208 5.34748 9.52212 13.7417
416 2 2.2208 5.24773 6.75161 16.6043
417 2 2.2208 5.26626 12.3482 16.5493
418 1 -1.1104 1.13669 8.1029 17.971
420 1 -1.1104 1.01929 8.21929 15.0461
424 1 -1.1104 0.950747 5.38453 17.9312
425 1 -1.1104 1.04298 11.1251 17.9593
428 2 2.2208 5.36611 9.58656 19.3733
429 1 -1.1104 1.06767 5.46716 15.1281
431 1 -1.1104 1.04216 11.012 15.1066
437 1 -1.1104 4.01117 8.22891 18.122
438 2 2.2208 2.45484 6.74621 19.3589
439 2 2.2208 2.52675 12.4216 19.3824
440 1 -1.1104 3.83926 8.09582 15.2789
442 2 2.2208 2.47169 9.53244 16.5003
443 1 -1.1104 3.84392 5.35668 17.8862
444 1 -1.1104 3.89916 10.9239 17.7735
445 1 -1.1104 3.94633 5.39663 15.1296
447 1 -1.1104 3.98172 10.9404 15.0874
421 1 -1.1104 1.1258 8.35433 20.6878
422 1 -1.1104 6.69718 8.1028 15.3114
499 1 -1.1104 6.72573 16.4802 20.6765
435 1 -1.1104 6.73178 10.9512 15.1631
325 2 2.2208 8.03164 12.4148 13.678
448 1 -1.1104 3.87206 10.8533 20.7339
378 2 2.2208 -0.357015 9.62787 19.4061
436 1 -1.1104 6.53268 10.9014 20.8989
427 1 -1.1104 6.77469 11.0378 18.0143
419 1 -1.1104 6.74677 8.06564 18.087
433 1 -1.1104 6.60743 5.34341 15.2356
9167 2 2.2208 13.5659 17.9986 24.9785
575 1 -1.1104 6.59712 16.6219 23.6024
426 1 -1.1104 6.79593 5.21149 17.9552
454 2 2.2208 10.9153 6.82525 16.5963
455 2 2.2208 10.8753 12.4202 16.6096
456 1 -1.1104 12.3034 8.2833 17.966
457 1 -1.1104 12.337 8.12764 15.1481
459 1 -1.1104 12.1465 5.36656 17.8474
460 1 -1.1104 12.224 11.0197 17.8649
461 2 2.2208 10.7438 9.59779 19.3609
462 1 -1.1104 12.1422 5.43081 15.0584
464 1 -1.1104 12.3084 11.0421 15.1304
466 1 -1.1104 9.60293 8.26567 17.8726
467 2 2.2208 8.06081 6.6466 19.3522
468 2 2.2208 8.07909 12.3556 19.4756
469 1 -1.1104 9.48934 8.15941 15.0495
471 2 2.2208 8.07934 9.56792 16.5304
472 1 -1.1104 9.50032 5.27985 17.9659
473 1 -1.1104 9.31844 10.8193 18.028
474 1 -1.1104 9.34293 5.31927 15.0958
476 1 -1.1104 9.58369 10.8944 15.212
463 1 -1.1104 12.2511 5.34515 20.7191
458 1 -1.1104 12.1539 8.20861 20.7185
475 1 -1.1104 9.44874 5.30583 20.6799
673 1 -1.1104 6.58848 13.9204 23.5642
465 1 -1.1104 12.2134 10.9531 20.6429
423 1 -1.1104 6.73176 8.13451 20.837
9174 2 2.2208 13.6211 1.12822 19.3882
9355 2 2.2208 -0.416475 20.8224 13.6567
638 1 -1.1104 12.233 16.6191 23.4969
513 2 2.2208 2.44492 18.0241 13.6715
453 2 2.2208 10.8798 9.57641 13.8051
479 2 2.2208 5.17604 17.9953 16.4924
480 1 -1.1104 1.03344 13.7035 17.9541
481 1 -1.1104 1.18318 19.3007 17.8694
484 1 -1.1104 1.06212 13.7224 15.2285
486 1 -1.1104 1.09655 19.4767 15.1652
492 1 -1.1104 1.18679 16.4735 17.9868
494 2 2.2208 5.25373 15.1677 19.3019
495 2 2.2208 5.23021 20.9275 19.3262
496 1 -1.1104 1.12258 16.6703 15.2
500 1 -1.1104 3.95542 13.8128 17.8414
501 1 -1.1104 3.85621 19.5158 17.6858
502 2 2.2208 2.51432 18.0091 19.3276
503 1 -1.1104 3.87951 13.6738 15.157
505 1 -1.1104 3.78443 19.3159 15.0575
507 2 2.2208 2.50336 15.2059 16.589
508 2 2.2208 2.42157 20.7339 16.3998
509 1 -1.1104 3.86488 16.6664 17.9779
510 1 -1.1104 3.96334 16.5277 15.1918
603 1 -1.1104 6.6742 19.365 26.2815
381 2 2.2208 -0.219914 -1.62542 13.7058
485 1 -1.1104 1.0575 13.9631 20.7201
497 1 -1.1104 0.921338 16.7149 20.7366
487 1 -1.1104 1.14142 19.4124 20.7612
511 1 -1.1104 3.84023 16.5815 20.6721
506 1 -1.1104 3.94104 19.3755 20.6807
9133 2 2.2208 -0.276562 9.63226 13.7445
483 1 -1.1104 6.49168 19.2132 17.9027
498 1 -1.1104 6.82478 16.4203 15.1313
9312 2 2.2208 13.6171 17.9673 19.3535
488 1 -1.1104 6.72187 13.5854 15.1512
482 1 -1.1104 6.72865 13.6129 17.9766
490 1 -1.1104 6.66045 19.3961 15.0904
493 1 -1.1104 6.6357 16.5662 17.9466
515 2 2.2208 10.7961 17.9209 16.4544
516 1 -1.1104 12.3395 13.8592 17.8349
517 1 -1.1104 12.2792 19.3976 17.864
518 1 -1.1104 12.2187 13.9224 15.0158
520 1 -1.1104 12.27 19.5244 14.973
522 1 -1.1104 12.2794 16.5498 17.785
523 2 2.2208 10.8265 15.2831 19.2687
524 2 2.2208 10.8507 20.7422 19.2374
525 1 -1.1104 12.2197 16.7191 15.0092
527 1 -1.1104 9.45738 13.6615 17.9886
528 1 -1.1104 9.48464 19.3469 17.8399
529 2 2.2208 7.93182 18.025 19.3455
530 1 -1.1104 9.57243 13.66 14.9437
532 1 -1.1104 9.47307 19.3058 15.1466
534 2 2.2208 8.14149 15.0109 16.4841
535 2 2.2208 7.99015 20.7332 16.4476
536 1 -1.1104 9.40152 16.4791 17.7679
537 1 -1.1104 9.53568 16.4166 15.086
538 1 -1.1104 9.49036 16.5744 20.6776
320 2 2.2208 5.21127 3.98586 13.7162
526 1 -1.1104 12.2119 16.716 20.606
533 1 -1.1104 9.43646 19.4869 20.5642
602 2 2.2208 7.9938 18.0643 24.8204
351 1 -1.1104 1.17245 2.6062 20.7211
576 2 2.2208 -0.26852 -1.73988 24.9151
9357 2 2.2208 -0.317427 4.04917 25.0218
543 2 2.2208 5.37563 1.2634 22.1511
544 1 -1.1104 1.13367 -2.98161 23.454
545 1 -1.1104 0.882183 2.41976 23.5647
548 1 -1.1104 1.2519 -3.17841 26.2957
549 1 -1.1104 1.25812 2.66694 26.2709
552 1 -1.1104 0.994342 -0.218045 23.416
554 2 2.2208 5.3054 -1.61993 24.9756
556 1 -1.1104 1.12633 -0.269056 26.2106
558 1 -1.1104 3.8827 -2.9323 23.5835
559 1 -1.1104 3.76745 2.57411 23.5459
560 2 2.2208 2.45715 1.17715 24.8394
561 1 -1.1104 4.08459 -2.98164 26.3658
562 1 -1.1104 4.06292 2.54319 26.4318
563 2 2.2208 2.46416 -1.53616 22.1008
564 2 2.2208 2.44984 3.97956 22.0738
565 1 -1.1104 3.88788 -0.309148 23.5821
566 1 -1.1104 3.86321 -0.246832 26.3359
601 1 -1.1104 9.3814 19.5829 23.2822
512 2 2.2208 5.34049 15.2616 13.735
452 2 2.2208 10.9289 20.7217 24.8669
550 1 -1.1104 6.94201 -3.10472 26.3395
547 1 -1.1104 6.52863 2.50799 23.7537
555 2 2.2208 5.35301 4.04015 25.0503
600 1 -1.1104 12.2475 13.729 23.4152
413 2 2.2208 8.06138 20.7908 22.0358
402 1 -1.1104 9.54729 2.48489 20.8278
355 1 -1.1104 6.84339 2.586 20.8763
363 1 -1.1104 6.63157 -0.176114 20.7932
390 1 -1.1104 12.2179 2.45304 20.7439
553 1 -1.1104 6.62012 -0.331023 23.4598
557 1 -1.1104 6.86129 -0.196905 26.3105
551 1 -1.1104 6.83756 2.5867 26.375
407 1 -1.1104 9.42554 -0.195393 20.7463
546 1 -1.1104 6.60789 -3.00342 23.5318
579 2 2.2208 10.8008 1.15083 22.2225
580 1 -1.1104 12.3222 -2.9402 23.2549
581 1 -1.1104 12.3272 2.42939 23.5614
582 1 -1.1104 12.3726 -2.92973 26.1354
583 1 -1.1104 12.4114 2.64927 26.3972
584 1 -1.1104 12.3612 -0.155363 23.4326
585 2 2.2208 10.9863 -1.60877 24.8157
586 2 2.2208 10.9893 3.97638 25.1185
587 1 -1.1104 12.4591 -0.153507 26.2719
588 1 -1.1104 9.49979 -3.02863 23.4693
589 1 -1.1104 9.51481 2.79376 23.6732
590 2 2.2208 8.05301 1.14073 25.0525
591 1 -1.1104 9.67907 -3.13533 26.3227
592 1 -1.1104 9.60157 2.48438 26.6038
593 2 2.2208 8.22264 -1.6735 22.0986
594 2 2.2208 8.08687 3.8791 22.2626
595 1 -1.1104 9.51895 -0.310677 23.5889
596 1 -1.1104 9.59768 -0.279062 26.2196
666 1 -1.1104 6.60574 16.7036 26.3821
605 1 -1.1104 12.197 19.207 23.4697
384 1 -1.1104 9.45301 19.5005 26.2492
432 1 -1.1104 1.14107 11.062 20.8764
430 1 -1.1104 1.05408 5.35413 20.8008
446 1 -1.1104 3.85173 5.32251 20.6983
383 1 -1.1104 9.43004 13.8282 26.3612
385 2 2.2208 8.07412 15.2225 22.1049
441 1 -1.1104 3.92123 8.05954 20.8736
376 2 2.2208 -0.305081 6.83884 22.166
608 2 2.2208 5.31467 6.77806 22.1482
609 2 2.2208 5.28227 12.3666 22.2186
610 1 -1.1104 0.993476 8.33175 23.4099
612 1 -1.1104 1.10343 8.26623 26.2027
614 1 -1.1104 1.21591 5.42296 23.5314
615 1 -1.1104 1.05373 10.9527 23.5555
618 2 2.2208 5.27362 9.50101 24.965
619 1 -1.1104 1.03909 5.60728 26.2462
620 1 -1.1104 1.01811 11.1367 26.4297
623 1 -1.1104 3.98641 8.33782 23.5715
624 2 2.2208 2.59257 6.86139 24.8333
625 2 2.2208 2.3604 12.6404 24.9522
626 1 -1.1104 3.91631 8.24835 26.2634
627 2 2.2208 2.5284 9.62311 22.158
628 1 -1.1104 3.97005 5.48097 23.528
629 1 -1.1104 3.93731 11.2039 23.5942
630 1 -1.1104 3.88326 5.42813 26.3609
631 1 -1.1104 3.87451 11.0491 26.332
622 1 -1.1104 6.72801 11.0313 26.4317
617 1 -1.1104 6.67603 11.0704 23.7375
616 1 -1.1104 6.68609 5.21429 23.6084
521 1 -1.1104 12.1329 19.2559 20.7
434 1 -1.1104 6.6834 5.32593 20.7858
477 1 -1.1104 9.33927 11.0002 20.7739
470 1 -1.1104 9.39758 8.0465 20.5992
573 1 -1.1104 12.2702 16.5118 26.353
574 1 -1.1104 9.49535 13.9337 23.5759
478 2 2.2208 10.9116 15.2051 24.8152
611 1 -1.1104 6.64707 8.05399 23.7071
621 1 -1.1104 6.85295 5.39131 26.4217
613 1 -1.1104 6.71674 8.1459 26.3153
639 1 -1.1104 9.45793 10.9238 26.2168
640 1 -1.1104 9.61742 5.49232 26.2531
641 1 -1.1104 9.40245 10.9173 23.5929
642 1 -1.1104 9.60099 5.33131 23.5189
643 2 2.2208 8.08238 9.48576 22.1608
644 1 -1.1104 9.39352 8.28168 26.3845
645 2 2.2208 8.04419 12.401 24.9785
646 2 2.2208 8.21829 6.79046 25.0074
647 2 2.2208 10.9255 6.70344 22.1773
648 2 2.2208 10.9322 12.4024 22.0981
649 1 -1.1104 12.2796 8.19816 23.3592
650 1 -1.1104 12.2396 8.30551 26.2467
651 1 -1.1104 12.3139 5.35333 23.4882
652 1 -1.1104 12.2977 10.9839 23.3972
653 2 2.2208 10.8191 9.68803 24.8884
654 1 -1.1104 12.389 5.37396 26.2071
655 1 -1.1104 12.3459 11.1597 26.331
656 1 -1.1104 9.52177 8.14265 23.5695
449 1 -1.1104 9.44714 16.6652 26.3081
415 1 -1.1104 9.41606 16.7341 23.511
606 1 -1.1104 12.3058 13.8118 26.2826
491 1 -1.1104 6.70836 19.6022 20.6709
489 1 -1.1104 6.63217 13.7323 20.8495
504 1 -1.1104 3.84631 13.7292 20.7288
567 2 2.2208 2.49665 15.2995 22.1188
568 2 2.2208 2.42019 20.8483 22.0891
569 1 -1.1104 3.85394 16.7946 23.4916
571 1 -1.1104 0.989031 16.6558 23.5558
599 1 -1.1104 3.73387 14.0096 26.4628
632 1 -1.1104 3.71892 16.7122 26.2316
633 2 2.2208 2.27429 17.9363 24.9175
634 1 -1.1104 3.8556 19.4467 26.3275
635 2 2.2208 5.23587 17.9576 22.1183
658 1 -1.1104 1.00822 13.7421 23.5918
659 1 -1.1104 1.05575 19.3324 23.4897
663 1 -1.1104 3.77579 19.434 23.5425
665 1 -1.1104 3.76407 14.0276 23.5478
667 1 -1.1104 1.04945 19.4757 26.2573
668 1 -1.1104 0.915441 16.7074 26.4582
669 1 -1.1104 1.03352 13.9996 26.4267
671 2 2.2208 5.20581 20.9488 24.8854
672 2 2.2208 5.29531 15.3146 25.0366
664 1 -1.1104 6.66188 13.7737 26.5256
670 1 -1.1104 6.58734 19.3687 23.5366
607 1 -1.1104 12.3018 19.2382 26.3191
578 2 2.2208 10.78 18.0428 22.0265
531 1 -1.1104 9.52281 13.8613 20.7553
377 2 2.2208 13.6542 9.61605 22.0787
637 2 2.2208 -0.355157 12.3786 22.1285
9168 2 2.2208 13.6591 4.00948 16.5552
330 2 2.2208 5.16153 18.0678 27.7665
542 2 2.2208 10.7918 17.9294 27.7183
9383 2 2.2208 13.6507 17.9943 13.7024
408 2 2.2208 13.7419 12.4787 13.7477
451 2 2.2208 2.41097 12.357 13.8125
342 2 2.2208 10.9661 12.4179 27.7588
657 2 2.2208 10.869 6.80014 27.6797
414 2 2.2208 10.8311 -1.6909 13.7338
9130 2 2.2208 -0.209166 6.83786 27.7264
321 2 2.2208 8.05554 1.34661 13.7858
326 2 2.2208 8.1063 6.65351 13.7205
331 2 2.2208 2.41175 20.8335 27.6962
541 2 2.2208 8.0869 17.8481 13.7168
335 2 2.2208 8.00424 20.7637 27.7044
319 2 2.2208 2.3614 1.20977 13.6877
338 2 2.2208 2.47475 9.6361 27.7168
333 2 2.2208 2.60187 3.98348 27.7997
323 2 2.2208 2.41914 6.71681 13.7661
674 2 2.2208 5.32657 23.5965 5.27501
675 2 2.2208 5.19039 29.2791 5.28163
676 1 -1.1104 0.999459 25.0431 1.09762
677 1 -1.1104 1.17718 25.0323 3.84747
678 1 -1.1104 1.05967 22.0972 1.21406
679 1 -1.1104 1.16728 27.8654 1.03535
680 2 2.2208 5.1847 26.3481 2.39135
681 1 -1.1104 1.03977 22.2107 3.94019
682 1 -1.1104 1.01391 27.6889 3.99736
683 1 -1.1104 3.88688 25.0027 1.01362
684 2 2.2208 2.49515 23.6441 2.3307
685 2 2.2208 2.42986 29.1751 2.40306
686 1 -1.1104 3.74037 24.9826 3.89427
687 2 2.2208 2.52358 26.4096 5.34637
688 1 -1.1104 3.75898 22.2977 1.01691
689 1 -1.1104 3.87965 27.8479 1.03716
690 1 -1.1104 3.8721 22.3277 3.74458
691 1 -1.1104 3.83345 27.8282 3.81355
1373 1 -1.1104 3.84821 47.5196 3.88922
1006 2 2.2208 5.23077 23.5404 -0.436035
1233 2 2.2208 5.37655 29.2869 -0.328755
700 1 -1.1104 6.58441 27.7206 4.00798
696 1 -1.1104 6.57941 24.8215 3.80972
1014 2 2.2208 2.47046 32.1005 -0.331155
823 1 -1.1104 3.76282 27.7735 6.63465
817 1 -1.1104 1.21221 22.0317 6.81552
822 1 -1.1104 3.85008 22.2979 6.75782
1262 2 2.2208 10.7841 29.2046 -0.307804
695 1 -1.1104 6.71927 24.8297 1.18248
699 1 -1.1104 6.60614 22.0656 3.94269
698 1 -1.1104 6.65556 27.7794 1.18119
697 1 -1.1104 6.64472 22.2268 0.957998
701 2 2.2208 11.0629 23.5071 5.2669
702 2 2.2208 10.7512 29.1305 5.46765
703 1 -1.1104 12.235 24.9937 1.10533
704 1 -1.1104 12.3601 24.8772 3.83206
705 1 -1.1104 12.2965 21.9941 1.00208
706 1 -1.1104 12.1973 27.8072 1.04746
707 2 2.2208 11.0723 26.3993 2.3807
708 1 -1.1104 12.3363 22.1059 3.79738
709 1 -1.1104 12.2018 27.7424 3.89374
710 1 -1.1104 9.47174 24.8913 1.06321
711 2 2.2208 8.06577 23.4875 2.55185
712 2 2.2208 7.98768 29.0971 2.52862
713 1 -1.1104 9.48095 24.9325 4.45369
714 2 2.2208 7.96851 26.3986 5.13425
715 1 -1.1104 9.48852 22.0583 1.08169
716 1 -1.1104 9.52536 27.6898 1.16056
717 1 -1.1104 9.36573 22.1796 3.9218
718 1 -1.1104 9.49866 27.6223 3.73975
1011 2 2.2208 11.0273 23.5136 -0.26098
1012 2 2.2208 8.03297 26.5216 -0.210527
1338 2 2.2208 -0.282133 46.1283 -0.319382
852 1 -1.1104 9.18902 27.8232 6.47561
1394 1 -1.1104 12.2554 47.4381 3.8502
723 2 2.2208 5.3202 34.8107 5.41667
724 1 -1.1104 1.07895 30.4829 1.01345
725 1 -1.1104 0.930979 36.2753 1.0779
727 1 -1.1104 1.08585 30.6969 3.82657
728 1 -1.1104 1.05133 36.3935 3.73457
730 1 -1.1104 1.0746 33.3902 1.09057
731 2 2.2208 5.12151 32.0474 2.44128
732 2 2.2208 5.27052 37.735 2.47319
733 1 -1.1104 0.925932 33.522 4.18781
735 1 -1.1104 3.93288 30.7329 1.00669
736 1 -1.1104 3.83221 36.1501 1.18327
737 2 2.2208 2.36503 34.8203 2.60051
738 1 -1.1104 3.74526 30.7636 3.73512
739 1 -1.1104 3.88735 36.2502 3.89684
740 2 2.2208 2.28956 32.0438 5.34539
741 2 2.2208 2.46811 37.6177 5.33796
742 1 -1.1104 3.76564 33.4999 1.07972
743 1 -1.1104 3.7868 33.4553 3.971
1013 2 2.2208 2.41323 37.5399 -0.139009
747 1 -1.1104 6.61795 30.4592 3.78794
1594 1 -1.1104 9.52531 47.391 12.3011
746 1 -1.1104 6.68181 30.6716 1.0524
1015 2 2.2208 5.23655 34.8346 -0.128904
734 1 -1.1104 6.5579 33.2351 3.97026
748 1 -1.1104 6.60882 33.4424 1.22738
729 1 -1.1104 6.72895 36.0991 3.96898
877 1 -1.1104 3.85541 33.339 6.76477
869 1 -1.1104 1.01083 30.5905 6.75612
726 1 -1.1104 6.69707 36.2954 1.10964
1017 2 2.2208 8.17152 37.5531 -0.157021
749 2 2.2208 10.9029 34.8421 5.26288
750 1 -1.1104 12.1083 30.59 1.04258
751 1 -1.1104 12.2431 36.1401 1.21313
752 1 -1.1104 12.1836 30.4796 3.97327
753 1 -1.1104 12.196 36.1859 3.99752
754 1 -1.1104 12.0751 33.3625 1.07321
755 2 2.2208 10.7719 31.8048 2.5191
756 2 2.2208 10.8707 37.5673 2.51599
757 1 -1.1104 12.1508 33.2743 3.91712
758 1 -1.1104 9.28187 30.6015 1.28313
759 1 -1.1104 9.42098 36.1404 1.27466
760 2 2.2208 8.00672 34.8106 2.62876
761 1 -1.1104 9.35461 30.4448 3.99035
762 1 -1.1104 9.47353 36.2589 4.0538
763 2 2.2208 8.11317 32.0309 5.36419
764 2 2.2208 8.04498 37.5411 5.37284
765 1 -1.1104 9.39097 33.2889 1.21381
766 1 -1.1104 9.40891 33.3339 4.02678
1316 2 2.2208 7.93869 32.0624 -0.136053
1576 1 -1.1104 12.2907 47.5384 6.59011
1007 2 2.2208 2.51261 26.5036 -0.332927
793 2 2.2208 -0.405691 43.2792 2.58944
1545 1 -1.1104 6.68222 47.5095 6.71292
720 2 2.2208 13.6399 29.1604 2.38202
774 1 -1.1104 0.987359 38.9343 0.86325
788 1 -1.1104 3.81084 38.8175 1.05845
768 2 2.2208 5.26462 40.3983 5.39606
769 2 2.2208 5.19987 46.0243 5.21543
770 1 -1.1104 1.05436 41.8303 0.960898
772 1 -1.1104 1.00785 41.8897 3.9025
775 1 -1.1104 1.16482 44.6345 1.13076
778 2 2.2208 5.20052 43.2305 2.56914
779 1 -1.1104 1.06134 39.0805 3.89053
780 1 -1.1104 0.996351 44.773 3.97142