ITEM: TIMESTEP
30000
ITEM: NUMBER OF ATOMS
17820
ITEM: BOX BOUNDS pp pp pp
-3.6582780963585804e-01 2.7705827809636055e+01
-4.4511143773582571e+00 3.3253111437735822e+02
-3.6861554273793917e-01 2.7708615542737981e+01
ITEM: ATOMS id type q x y z
1 2 2.2208 5.52489 1.11933 5.35798
2 1 -1.1104 1.1143 -2.99024 1.08205
3 1 -1.1104 1.22994 2.53227 1.06201
6 1 -1.1104 1.19468 -3.10506 3.97247
7 1 -1.1104 1.27465 2.48688 3.85115
10 1 -1.1104 1.14784 -0.315086 1.00465
12 2 2.2208 5.47267 -1.66938 2.54252
13 2 2.2208 5.36505 3.90771 2.30809
14 1 -1.1104 1.41362 -0.302695 3.84355
16 1 -1.1104 4.03818 -3.03697 1.03203
17 1 -1.1104 4.09356 2.55661 0.947365
18 2 2.2208 2.79145 1.11078 2.4528
19 1 -1.1104 4.0355 -3.02971 3.87698
20 1 -1.1104 4.05 2.5137 3.9242
21 2 2.2208 2.67384 -1.61714 5.33693
22 2 2.2208 2.66575 3.90555 5.17711
23 1 -1.1104 3.92904 -0.163416 1.04541
24 1 -1.1104 4.17991 -0.258558 3.78143
8444 2 2.2208 10.932 -4.42893 5.35831
332 2 2.2208 2.55768 -1.66082 -0.304433
9124 2 2.2208 -0.00774379 3.93751 2.47374
9122 2 2.2208 -0.0683022 1.06791 5.27385
9121 2 2.2208 -0.195136 -1.683 2.54799
8443 2 2.2208 8.26632 -4.36731 2.4346
8441 2 2.2208 5.47422 -4.41753 5.26362
8442 2 2.2208 -0.214035 -4.4396 5.33219
8440 2 2.2208 2.64629 -4.43568 2.40662
170 1 -1.1104 1.14276 -0.242523 6.57388
9136 2 2.2208 -0.0823512 1.09584 -0.299093
5 1 -1.1104 6.86106 2.52465 1.0594
4 1 -1.1104 6.86041 -3.0276 0.948401
11 1 -1.1104 6.92727 -0.186992 1.05858
169 1 -1.1104 6.70207 2.60498 6.71357
9 1 -1.1104 6.85406 2.57432 3.93353
15 1 -1.1104 6.80753 -0.369094 4.00351
8 1 -1.1104 6.82716 -3.0704 3.89795
31 2 2.2208 10.9945 1.1525 5.3276
32 1 -1.1104 12.4576 -3.09719 1.17081
33 1 -1.1104 12.4647 2.53009 1.05455
34 1 -1.1104 12.2685 -3.0306 4.08016
35 1 -1.1104 12.5486 2.58974 3.89227
36 1 -1.1104 12.5503 -0.245324 1.23278
37 2 2.2208 11.0925 -1.5977 2.59638
38 2 2.2208 11.1005 3.95685 2.46937
39 1 -1.1104 12.4065 -0.258237 3.86791
40 1 -1.1104 9.58932 -2.90721 1.1319
41 1 -1.1104 9.71655 2.5521 1.04267
42 2 2.2208 8.17826 1.06871 2.4999
43 1 -1.1104 9.5067 -3.04794 3.92839
44 1 -1.1104 9.79079 2.6277 3.77061
45 2 2.2208 8.15639 -1.73541 5.45727
46 2 2.2208 8.2287 3.93019 5.28278
47 1 -1.1104 9.64505 -0.113266 0.990633
48 1 -1.1104 9.63706 -0.19564 3.96672
136 1 -1.1104 12.4289 16.4782 12.4926
203 1 -1.1104 9.53137 19.443 12.4149
8534 2 2.2208 11.0389 -4.38155 -0.270391
171 1 -1.1104 6.76064 -0.20613 6.72864
598 2 2.2208 8.29459 -1.57502 -0.279567
54 2 2.2208 5.5228 6.79438 5.22916
55 2 2.2208 5.28847 12.356 5.09204
56 1 -1.1104 1.10722 8.11037 1.01393
58 1 -1.1104 1.3283 8.1649 3.72707
60 1 -1.1104 1.22302 5.29066 1.03843
61 1 -1.1104 0.988926 10.8305 1.10727
66 2 2.2208 5.31853 9.58741 2.47142
67 1 -1.1104 1.15812 5.33807 3.88272
68 1 -1.1104 1.09865 10.9913 3.83649
71 1 -1.1104 3.78277 8.03152 1.13273
72 2 2.2208 2.54478 6.7897 2.49348
73 2 2.2208 2.48007 12.3774 2.49326
74 1 -1.1104 4.03556 8.13727 3.8654
75 2 2.2208 2.4547 9.61127 5.13652
76 1 -1.1104 3.92791 5.21914 0.938638
77 1 -1.1104 3.89645 10.7744 0.980138
79 1 -1.1104 4.07691 5.25829 3.75935
80 1 -1.1104 3.72752 10.9727 3.6835
83 2 2.2208 -0.186475 12.3968 5.20118
82 2 2.2208 -0.258822 9.58132 2.50588
81 2 2.2208 -0.239513 6.76941 5.24165
238 1 -1.1104 3.92471 8.30331 6.77496
236 1 -1.1104 1.19105 5.4164 6.56742
239 1 -1.1104 3.90147 5.43354 6.53945
338 2 2.2208 2.60558 9.44756 -0.332778
314 1 -1.1104 9.63229 16.7192 9.67842
341 2 2.2208 8.1367 9.49806 -0.297852
342 2 2.2208 11.0535 12.4237 -0.307556
657 2 2.2208 11.0857 6.88189 -0.173385
57 1 -1.1104 6.64772 8.12596 0.925096
64 1 -1.1104 6.78703 11.0613 1.34621
70 1 -1.1104 6.71497 11.0043 3.95798
69 1 -1.1104 7.00313 5.33014 3.93201
59 1 -1.1104 6.76831 8.33275 3.84274
63 1 -1.1104 6.98682 5.36771 1.11826
84 2 2.2208 11.0226 6.86939 5.25276
85 2 2.2208 10.9842 12.3029 5.3277
86 1 -1.1104 12.2957 8.31075 1.12703
87 1 -1.1104 12.4048 8.15058 3.99493
88 1 -1.1104 12.5438 5.3343 1.22207
89 1 -1.1104 12.4187 10.9348 1.15463
91 2 2.2208 10.933 9.68005 2.5866
92 1 -1.1104 12.5749 5.56136 3.96403
93 1 -1.1104 12.3501 10.8971 3.8233
94 1 -1.1104 9.46695 8.24721 1.27527
95 2 2.2208 8.35356 6.7403 2.57429
96 2 2.2208 8.21187 12.4915 2.55634
97 1 -1.1104 9.61261 8.29784 4.04779
98 2 2.2208 8.0876 9.65517 5.33815
99 1 -1.1104 9.83843 5.42695 0.97835
100 1 -1.1104 9.65504 11.1601 1.14919
102 1 -1.1104 9.71546 5.55916 3.8654
103 1 -1.1104 9.52317 11.0475 3.88973
237 1 -1.1104 6.79555 5.41457 6.59987
269 1 -1.1104 9.42876 5.50576 6.64518
8972 2 2.2208 -0.313008 15.2507 2.5344
8971 2 2.2208 -0.288997 20.6216 2.60613
8863 2 2.2208 -0.156481 17.9309 5.31177
106 2 2.2208 5.32052 18.0154 5.53379
107 1 -1.1104 1.15053 13.7731 1.15969
109 1 -1.1104 1.28213 19.4168 1.20556
113 1 -1.1104 1.13103 13.6784 3.91805
114 1 -1.1104 1.32661 19.2888 3.93173
116 1 -1.1104 1.2347 16.601 1.09698
119 2 2.2208 5.40883 15.175 2.49225
120 2 2.2208 5.40634 20.8208 2.59268
121 1 -1.1104 1.25002 16.5704 3.91818
123 1 -1.1104 4.10444 13.7947 1.2208
125 1 -1.1104 3.973 19.3194 1.21697
127 2 2.2208 2.65346 17.9959 2.63363
128 1 -1.1104 3.84875 13.71 3.81011
129 1 -1.1104 4.05592 19.3729 4.02008
130 2 2.2208 2.63771 15.1243 5.34437
131 2 2.2208 2.59029 20.6928 5.43676
132 1 -1.1104 4.05024 16.683 1.16723
134 1 -1.1104 4.05331 16.4955 3.95199
329 2 2.2208 2.56768 15.3421 -0.240265
331 2 2.2208 2.64518 20.8731 -0.169994
9125 2 2.2208 -0.159237 18.1223 -0.196522
117 1 -1.1104 1.21012 16.4899 6.7445
231 2 2.2208 8.12159 18.1129 8.18542
138 1 -1.1104 6.78492 19.4849 1.2519
122 1 -1.1104 6.78648 16.6479 3.87788
139 1 -1.1104 6.78518 19.4804 4.04981
140 1 -1.1104 6.81993 16.6245 1.13447
110 1 -1.1104 6.84712 13.8669 1.03202
115 1 -1.1104 6.70109 13.8477 3.91329
141 2 2.2208 10.8829 17.9469 5.38066
142 1 -1.1104 12.3016 13.8069 1.11331
144 1 -1.1104 12.4398 19.4795 1.27662
146 1 -1.1104 12.333 13.717 4.11871
147 1 -1.1104 12.3148 19.3075 4.04419
148 1 -1.1104 12.5603 16.7772 1.07787
150 2 2.2208 11.205 15.18 2.62721
151 2 2.2208 10.9939 20.8432 2.66299
152 1 -1.1104 12.5764 16.4925 3.98071
153 1 -1.1104 9.63501 13.8589 1.02989
155 1 -1.1104 9.53563 19.5027 1.30295
157 2 2.2208 8.18959 18.1127 2.65751
158 1 -1.1104 9.62222 13.8337 3.88664
159 1 -1.1104 9.55588 19.3497 4.07975
160 2 2.2208 8.16627 15.2765 5.24846
161 2 2.2208 8.072 20.9936 5.35497
162 1 -1.1104 9.80375 16.7163 1.01777
164 1 -1.1104 9.66311 16.5834 4.08673
335 2 2.2208 8.17096 20.8563 -0.121112
143 1 -1.1104 12.4282 13.7655 6.69306
542 2 2.2208 11.1029 18.1663 -0.169235
149 1 -1.1104 12.4225 16.53 6.7148
111 1 -1.1104 6.94094 13.7857 6.59612
112 1 -1.1104 6.74834 19.6175 6.79633
167 1 -1.1104 1.3535 2.52321 6.61301
174 1 -1.1104 3.99576 -0.234604 6.56402
166 1 -1.1104 1.20387 -3.06475 6.99395
172 1 -1.1104 3.97661 -3.01561 6.60953
201 2 2.2208 -0.0660089 1.25254 10.825
173 1 -1.1104 4.06389 2.48116 6.64521
175 2 2.2208 5.44303 1.26182 11.0398
176 1 -1.1104 1.18188 -2.99224 12.3972
177 1 -1.1104 1.42737 2.46188 12.023
180 1 -1.1104 1.31403 -3.11064 9.62644
181 1 -1.1104 1.26957 2.49336 9.32752
184 1 -1.1104 1.12985 -0.158741 12.3291
186 2 2.2208 5.42026 -1.64056 8.32466
187 2 2.2208 5.35756 3.99276 8.05088
188 1 -1.1104 1.34979 -0.27617 9.46489
190 1 -1.1104 3.98765 -2.92332 12.2331
191 1 -1.1104 4.15361 2.60155 12.2869
192 2 2.2208 2.78424 1.17487 8.13096
193 1 -1.1104 3.8467 -2.91094 9.39528
194 1 -1.1104 4.17986 2.53868 9.41949
195 2 2.2208 2.64504 -1.65066 10.8899
197 1 -1.1104 3.9748 -0.203163 12.3029
198 1 -1.1104 4.14411 -0.244822 9.48456
196 2 2.2208 2.60845 4.04112 10.9227
200 2 2.2208 -0.161777 -1.72779 8.22212
199 2 2.2208 -0.0793063 4.04409 7.87319
135 1 -1.1104 12.3738 19.4263 9.54575
311 1 -1.1104 12.4048 16.5697 9.50705
209 1 -1.1104 9.49554 2.75353 6.91087
207 1 -1.1104 12.4195 -0.159965 6.66492
206 1 -1.1104 12.2518 2.64279 6.85166
183 1 -1.1104 6.86638 2.68202 9.57508
168 1 -1.1104 6.80005 -3.05176 6.93694
210 1 -1.1104 9.57716 -0.199384 6.79425
178 1 -1.1104 6.90176 -3.06113 12.3027
179 1 -1.1104 6.93716 2.61413 12.2928
185 1 -1.1104 6.89357 -0.342231 12.4141
189 1 -1.1104 6.84156 -0.158283 9.73414
182 1 -1.1104 6.84073 -3.08152 9.56071
205 1 -1.1104 12.3833 -3.1117 6.94598
208 1 -1.1104 9.6484 -2.98323 6.80095
211 2 2.2208 11.0272 1.08977 10.8096
212 1 -1.1104 12.3667 -3.07691 12.5045
213 1 -1.1104 12.498 2.51637 12.2903
214 1 -1.1104 12.498 -3.14062 9.71765
215 1 -1.1104 12.6055 2.53861 9.44278
216 1 -1.1104 12.5458 -0.39231 12.3328
217 2 2.2208 11.1175 -1.72469 8.19261
218 2 2.2208 10.8363 4.12365 8.17842
219 1 -1.1104 12.3895 -0.101625 9.54226
220 1 -1.1104 9.59764 -3.02339 12.4526
221 1 -1.1104 9.67705 2.56367 12.2634
222 2 2.2208 8.05623 1.14391 8.34603
223 1 -1.1104 9.77195 -3.14729 9.60978
224 1 -1.1104 9.57066 2.55905 9.58654
225 2 2.2208 8.25581 -1.64363 11.052
227 1 -1.1104 9.65272 -0.230151 12.3933
228 1 -1.1104 9.62596 -0.38713 9.54892
226 2 2.2208 8.2646 4.07489 10.9907
202 1 -1.1104 9.61281 13.8967 12.4308
322 2 2.2208 11.0047 3.98612 13.6212
26 2 2.2208 11.0021 18.0245 10.8964
9058 2 2.2208 -0.204406 6.86578 10.9037
78 1 -1.1104 3.88171 10.9672 6.47855
29 2 2.2208 -0.219339 12.4461 10.8895
62 1 -1.1104 0.949594 10.9518 6.54652
234 1 -1.1104 1.01986 8.24939 6.52997
240 2 2.2208 5.30075 6.73314 10.9074
241 2 2.2208 5.41773 12.2966 10.9237
242 1 -1.1104 1.09508 8.32854 12.1978
244 1 -1.1104 1.12456 8.06071 9.26791
246 1 -1.1104 1.19865 5.54915 12.0742
247 1 -1.1104 1.12659 11.0494 12.3026
250 2 2.2208 5.3567 9.57513 8.13594
251 1 -1.1104 1.28707 5.20618 9.31117
252 1 -1.1104 1.10905 10.9331 9.4
255 1 -1.1104 3.87467 8.20551 12.2089
256 2 2.2208 2.58095 6.81688 8.01105
257 2 2.2208 2.59326 12.3379 7.95826
258 1 -1.1104 3.9824 8.14484 9.53967
259 2 2.2208 2.56482 9.6774 10.8858
260 1 -1.1104 4.05278 5.40819 12.3572
261 1 -1.1104 4.06234 10.9632 12.2739
262 1 -1.1104 4.0328 5.32482 9.51762
263 1 -1.1104 3.97236 10.8812 9.48923
254 1 -1.1104 6.78841 10.9465 9.51676
27 1 -1.1104 12.294 13.7704 12.446
289 1 -1.1104 6.80449 16.5936 9.52949
267 1 -1.1104 9.48333 8.11948 6.69104
265 1 -1.1104 12.3597 8.1859 6.77848
266 1 -1.1104 12.3599 5.42808 6.64823
101 1 -1.1104 9.68397 11.0102 6.76411
90 1 -1.1104 12.375 10.9524 6.64249
65 1 -1.1104 6.84707 10.9823 6.65625
235 1 -1.1104 6.70205 8.24111 6.81537
249 1 -1.1104 6.76381 11.0898 12.2958
243 1 -1.1104 6.82907 8.32728 12.3748
253 1 -1.1104 6.75953 5.50267 9.46935
245 1 -1.1104 6.83234 8.192 9.67418
248 1 -1.1104 6.95815 5.47901 12.3508
264 1 -1.1104 9.50863 10.8649 9.43872
268 1 -1.1104 9.51128 5.41492 9.39043
270 1 -1.1104 9.45667 11.092 12.3936
271 1 -1.1104 9.64096 5.45465 12.193
272 2 2.2208 8.31045 9.69477 10.8858
273 1 -1.1104 9.66406 8.15207 9.57513
274 2 2.2208 8.13756 12.4148 8.04496
275 2 2.2208 8.10828 6.88322 8.2039
276 2 2.2208 11.0535 6.87014 10.9711
277 2 2.2208 11.0512 12.3355 10.8925
278 1 -1.1104 12.523 8.14891 12.3952
279 1 -1.1104 12.324 8.13558 9.45066
280 1 -1.1104 12.3827 5.37917 12.375
281 1 -1.1104 12.3937 10.9536 12.4176
282 2 2.2208 10.953 9.57499 8.11774
283 1 -1.1104 12.4335 5.41981 9.57777
284 1 -1.1104 12.264 11.0065 9.47625
285 1 -1.1104 9.75778 8.33059 12.38
297 1 -1.1104 6.58758 13.8448 12.2271
312 2 2.2208 -0.327243 17.9868 11.0963
108 1 -1.1104 1.31071 13.746 6.65737
124 1 -1.1104 4.16671 13.7499 6.75754
133 1 -1.1104 3.94775 16.5224 6.74561
302 1 -1.1104 1.13991 19.3083 6.70211
126 1 -1.1104 3.84913 19.4036 6.86118
286 1 -1.1104 3.93128 19.4301 12.5174
287 1 -1.1104 3.9508 13.7335 12.4311
291 1 -1.1104 1.18539 19.3845 9.61118
292 1 -1.1104 1.2462 16.6465 9.3688
293 2 2.2208 5.35717 20.8271 8.21399
294 1 -1.1104 1.08795 13.822 9.42227
295 2 2.2208 5.37526 15.1448 8.07714
298 1 -1.1104 1.12139 19.4595 12.3674
299 1 -1.1104 1.16645 14.0155 12.4286
300 2 2.2208 5.20975 18.0233 11.0431
301 1 -1.1104 3.95176 19.482 9.65242
303 2 2.2208 2.56039 17.9934 8.16351
304 1 -1.1104 4.04227 16.5617 9.52812
305 1 -1.1104 3.97696 13.6116 9.51209
307 1 -1.1104 1.10324 16.7359 12.2781
308 1 -1.1104 3.83114 16.6074 12.4082
309 2 2.2208 2.51862 20.8533 11.0345
310 2 2.2208 2.56865 15.1342 10.9358
8835 2 2.2208 -0.21088 20.854 8.26139
313 2 2.2208 -0.223219 15.2348 8.28187
290 1 -1.1104 6.85426 13.7532 9.4558
288 1 -1.1104 6.7049 19.4345 9.57095
232 1 -1.1104 9.48708 13.7319 9.67203
317 2 2.2208 8.21412 15.0942 10.9351
165 2 2.2208 11.1795 20.787 8.13327
156 1 -1.1104 9.55917 19.6979 6.73899
163 1 -1.1104 9.69445 16.7986 6.97549
296 1 -1.1104 6.77241 19.4506 12.4567
316 2 2.2208 8.11775 20.8261 11.0188
137 2 2.2208 10.8924 15.2098 8.15157
315 1 -1.1104 9.54837 16.5245 12.4531
306 1 -1.1104 6.8826 16.5794 12.3965
233 1 -1.1104 9.58284 19.6597 9.56287
118 1 -1.1104 6.91888 16.7194 6.72944
104 1 -1.1104 12.3074 19.4222 12.3695
145 1 -1.1104 12.3736 19.2474 6.79877
154 1 -1.1104 9.61503 13.7853 6.72402
105 1 -1.1104 12.3479 13.8338 9.5372
381 2 2.2208 -0.186214 -1.51964 13.5944
323 2 2.2208 2.58726 6.78161 13.6038
340 2 2.2208 -0.126518 12.3459 -0.353471
337 2 2.2208 5.37699 6.57193 -0.277154
339 2 2.2208 5.41667 12.3845 -0.212767
330 2 2.2208 5.33379 18.0741 -0.217711
343 2 2.2208 5.52503 1.22657 16.4688
344 1 -1.1104 1.274 -3.14369 18.1315
345 1 -1.1104 1.24698 2.48912 18.0705
348 1 -1.1104 1.44582 -3.06655 15.2754
350 1 -1.1104 1.47194 2.30335 15.1904
356 1 -1.1104 1.35173 -0.243121 18.0534
358 2 2.2208 5.60891 -1.56981 19.3749
359 2 2.2208 5.41546 4.05899 19.2749
360 1 -1.1104 1.24357 -0.328392 15.085
364 1 -1.1104 4.2091 -3.07991 17.9383
365 1 -1.1104 4.13007 2.56117 17.9524
366 2 2.2208 2.71003 1.19593 19.3792
367 1 -1.1104 4.20117 -3.10377 15.1232
369 1 -1.1104 4.21779 2.52047 15.0978
371 2 2.2208 2.65398 -1.66193 16.6128
373 1 -1.1104 4.02354 -0.232568 17.8863
374 1 -1.1104 4.17934 -0.322573 15.1156
372 2 2.2208 2.64546 4.01314 16.3815
379 2 2.2208 0.128874 1.02629 16.6
380 2 2.2208 -0.182452 -1.7122 19.4883
578 2 2.2208 11.0826 18.2241 22.1804
8644 2 2.2208 5.49298 -4.44533 16.4875
572 2 2.2208 -0.115475 3.97594 19.3029
318 2 2.2208 5.41135 -1.58311 13.7222
370 1 -1.1104 4.00266 2.55041 20.9439
319 2 2.2208 2.60762 1.14225 13.7335
352 1 -1.1104 6.97522 -3.00818 15.2114
347 1 -1.1104 7.11279 2.62713 17.7725
357 1 -1.1104 6.84892 -0.102207 17.9384
362 1 -1.1104 6.96292 -0.251694 15.034
354 1 -1.1104 7.05919 2.6114 15.1533
346 1 -1.1104 7.0467 -3.04126 17.9194
386 2 2.2208 11.167 1.1993 16.4742
387 1 -1.1104 12.5228 2.38523 17.9997
388 1 -1.1104 12.4398 -3.00856 15.482
389 1 -1.1104 12.6038 2.52379 15.1339
391 1 -1.1104 12.5697 -0.42076 17.9042
392 2 2.2208 10.9312 -1.52709 19.2009
393 2 2.2208 11.0835 3.9991 19.4246
394 1 -1.1104 12.4431 -0.25131 15.1744
396 1 -1.1104 9.85889 -3.02799 17.8953
397 1 -1.1104 9.66697 2.66888 17.8931
398 2 2.2208 8.36095 1.33295 19.2453
399 1 -1.1104 9.72446 -3.09902 15.156
401 1 -1.1104 9.89428 2.50091 15.0315
403 2 2.2208 8.18087 -1.60251 16.486
405 1 -1.1104 9.70396 -0.202169 17.9045
406 1 -1.1104 9.66235 -0.0364828 15.1899
404 2 2.2208 8.41026 3.9874 16.5092
414 2 2.2208 11.0296 -1.63196 13.8739
575 1 -1.1104 6.88699 16.5942 23.7082
363 1 -1.1104 6.98216 -0.257281 20.9355
407 1 -1.1104 9.79562 -0.0696759 20.6682
402 1 -1.1104 9.73154 2.59573 20.8707
416 2 2.2208 5.43238 6.74332 16.4622
417 2 2.2208 5.50453 12.3013 16.584
418 1 -1.1104 1.20893 8.31417 17.9939
420 1 -1.1104 1.21294 8.13785 15.0779
424 1 -1.1104 1.18887 5.31432 17.8459
425 1 -1.1104 1.36877 10.9325 17.9866
428 2 2.2208 5.44239 9.56274 19.4007
429 1 -1.1104 1.39276 5.43953 15.2073
431 1 -1.1104 1.26729 10.9008 15.1777
437 1 -1.1104 3.98561 8.11404 17.8597
438 2 2.2208 2.63243 6.78314 19.2121
439 2 2.2208 2.70183 12.3938 19.3033
440 1 -1.1104 3.94448 8.2622 15.0592
442 2 2.2208 2.52486 9.55054 16.5923
443 1 -1.1104 4.0485 5.4541 17.8797
444 1 -1.1104 4.00194 10.9572 18.0122
445 1 -1.1104 4.22221 5.43212 15.0762
447 1 -1.1104 4.0497 11.0047 15.1272
9282 2 2.2208 -0.154322 6.68551 16.4461
378 2 2.2208 -0.146066 9.52975 19.4554
382 2 2.2208 -0.119984 12.2818 16.5544
324 2 2.2208 5.31712 9.57641 13.7573
432 1 -1.1104 1.23889 11.0092 20.8171
603 1 -1.1104 6.7959 19.4572 26.5462
419 1 -1.1104 6.79148 8.13723 17.9708
435 1 -1.1104 6.89483 10.8975 15.0409
427 1 -1.1104 6.83389 10.8954 17.9153
426 1 -1.1104 6.90157 5.38413 17.9751
422 1 -1.1104 6.71568 8.16368 15.1834
433 1 -1.1104 6.98313 5.29005 15.1731
454 2 2.2208 11.1441 6.73152 16.4157
455 2 2.2208 10.9949 12.4237 16.4774
456 1 -1.1104 12.4143 8.08032 18.0128
457 1 -1.1104 12.3921 8.30243 15.2116
459 1 -1.1104 12.4662 5.45682 17.887
460 1 -1.1104 12.5312 10.9219 17.9543
461 2 2.2208 11.136 9.5889 19.2826
462 1 -1.1104 12.4604 5.3401 15.1719
464 1 -1.1104 12.3665 11.1 15.2149
466 1 -1.1104 9.60835 8.30603 18.0226
467 2 2.2208 8.2553 6.76296 19.3285
468 2 2.2208 8.31296 12.4608 19.4359
469 1 -1.1104 9.71683 8.18696 15.1554
471 2 2.2208 8.27494 9.56805 16.7074
472 1 -1.1104 9.80136 5.45889 17.8735
473 1 -1.1104 9.72197 10.978 17.9318
474 1 -1.1104 9.8251 5.45567 15.038
476 1 -1.1104 9.63705 11.0496 15.2078
453 2 2.2208 11.1188 9.73608 13.8339
325 2 2.2208 8.06145 12.452 13.7297
470 1 -1.1104 9.58473 8.06577 20.7508
512 2 2.2208 5.43246 15.2889 13.7182
9354 2 2.2208 -0.203008 15.1414 13.9648
9351 2 2.2208 -0.25462 20.8189 19.428
513 2 2.2208 2.48368 17.9521 13.788
479 2 2.2208 5.41474 18.1006 16.6341
480 1 -1.1104 1.20916 13.6793 17.9284
481 1 -1.1104 1.20967 19.4633 18.0012
484 1 -1.1104 1.18754 13.746 15.2194
486 1 -1.1104 1.04116 19.2859 15.0946
492 1 -1.1104 1.16443 16.5013 18.2146
494 2 2.2208 5.43676 15.2228 19.4696
495 2 2.2208 5.3882 20.8123 19.4491
496 1 -1.1104 1.0491 16.5061 15.4525
500 1 -1.1104 4.12433 13.7482 17.9406
501 1 -1.1104 3.96708 19.3902 18.1096
502 2 2.2208 2.62713 17.9971 19.4565
503 1 -1.1104 4.00293 13.7944 15.16
505 1 -1.1104 3.93903 19.373 15.3092
507 2 2.2208 2.82768 15.1492 16.5352
508 2 2.2208 2.49722 20.6868 16.5881
509 1 -1.1104 4.01653 16.5409 17.9214
510 1 -1.1104 4.07767 16.5324 15.1778
9352 2 2.2208 -0.207181 15.1877 19.4104
9353 2 2.2208 -0.210346 17.928 16.6545
514 2 2.2208 5.38768 20.8377 13.7745
498 1 -1.1104 6.87674 16.5476 15.2009
9355 2 2.2208 -0.371158 20.8554 13.7648
483 1 -1.1104 6.89048 19.4067 17.9767
490 1 -1.1104 6.71152 19.4441 15.1236
493 1 -1.1104 6.76983 16.6415 18.1099
482 1 -1.1104 6.88719 13.6575 17.9171
488 1 -1.1104 6.70061 13.7435 15.0756
515 2 2.2208 11.1304 17.96 16.5908
516 1 -1.1104 12.3899 13.7536 17.9233
517 1 -1.1104 12.5668 19.4897 18.0848
518 1 -1.1104 12.4729 13.7819 15.2664
520 1 -1.1104 12.3539 19.3547 15.2162
522 1 -1.1104 12.4834 16.6004 18.0169
523 2 2.2208 11.0319 15.133 19.3089
524 2 2.2208 11.0749 20.8719 19.4101
525 1 -1.1104 12.3781 16.6241 15.2313
527 1 -1.1104 9.69726 13.8065 18.1098
528 1 -1.1104 9.73381 19.4501 18.0452
529 2 2.2208 8.2505 17.9689 19.4135
530 1 -1.1104 9.55786 13.9561 15.2802
532 1 -1.1104 9.63637 19.2929 15.2402
534 2 2.2208 8.16571 15.235 16.7018
535 2 2.2208 8.24666 20.861 16.6522
536 1 -1.1104 9.64124 16.4611 17.8498
537 1 -1.1104 9.57769 16.5969 15.1944
541 2 2.2208 8.26574 18.0093 13.7374
539 2 2.2208 10.9432 20.7398 13.8734
327 2 2.2208 10.9192 15.3037 13.8392
666 1 -1.1104 6.7778 16.7292 26.4335
349 1 -1.1104 1.2236 -3.20134 20.6208
368 1 -1.1104 4.17205 -3.05923 20.7572
361 1 -1.1104 1.27687 -0.248032 20.8189
375 1 -1.1104 4.10561 -0.268027 20.7985
351 1 -1.1104 1.30491 2.53379 20.8628
543 2 2.2208 5.45089 1.12706 22.2253
544 1 -1.1104 1.22257 -3.10443 23.4799
545 1 -1.1104 1.22592 2.47246 23.6091
548 1 -1.1104 1.17364 -3.23483 26.2498
549 1 -1.1104 1.2232 2.51305 26.4309
552 1 -1.1104 1.31303 -0.377757 23.4974
554 2 2.2208 5.40384 -1.59383 25.0266
556 1 -1.1104 1.22931 -0.267136 26.3985
558 1 -1.1104 3.96556 -3.11337 23.484
559 1 -1.1104 4.06939 2.45454 23.5843
560 2 2.2208 2.57935 1.08829 24.9442
561 1 -1.1104 3.90493 -2.99302 26.2429
562 1 -1.1104 4.00591 2.46082 26.1295
563 2 2.2208 2.67921 -1.74689 22.1325
564 2 2.2208 2.58323 3.91907 22.1168
565 1 -1.1104 4.01794 -0.31411 23.5386
566 1 -1.1104 3.9261 -0.281499 26.326
555 2 2.2208 5.39151 4.0156 25.0455
9357 2 2.2208 -0.281315 3.93772 25.0186
576 2 2.2208 -0.269273 -1.69993 24.8967
577 2 2.2208 -0.0833313 1.10176 22.2568
355 1 -1.1104 6.75536 2.45352 20.631
400 1 -1.1104 10.1401 -2.82692 20.9397
546 1 -1.1104 6.9 -3.03576 23.5021
550 1 -1.1104 6.6931 -2.85801 26.3304
390 1 -1.1104 12.5637 2.4935 20.6503
547 1 -1.1104 6.87655 2.58471 23.5577
557 1 -1.1104 6.80039 -0.246214 26.367
553 1 -1.1104 6.83399 -0.169778 23.6286
353 1 -1.1104 6.92173 -3.00069 20.5949
395 1 -1.1104 12.6013 -0.443293 20.8461
551 1 -1.1104 6.70672 2.54503 26.2881
579 2 2.2208 11.0286 1.15398 22.2951
580 1 -1.1104 12.3274 -2.79629 23.4898
581 1 -1.1104 12.6177 2.77403 23.6017
582 1 -1.1104 12.4059 -3.03002 26.4523
583 1 -1.1104 12.5716 2.5496 26.3408
584 1 -1.1104 12.399 0.0292872 23.8109
585 2 2.2208 11.0787 -1.55939 24.9474
586 2 2.2208 11.121 4.08002 24.9966
587 1 -1.1104 12.4563 -0.265159 26.4582
588 1 -1.1104 9.61404 -3.05259 23.5933
589 1 -1.1104 9.7543 2.62511 23.676
590 2 2.2208 8.1552 1.2331 24.9429
591 1 -1.1104 9.58471 -3.06132 26.4139
592 1 -1.1104 9.68837 2.53642 26.3967
593 2 2.2208 8.35624 -1.56831 22.1629
594 2 2.2208 8.15616 3.96157 22.1464
595 1 -1.1104 9.64601 -0.231281 23.6212
596 1 -1.1104 9.5566 -0.225789 26.256
8499 2 2.2208 8.13112 -4.41553 24.9285
448 1 -1.1104 3.99324 11.0166 20.7317
446 1 -1.1104 4.06486 5.29126 20.7484
421 1 -1.1104 1.18007 8.16523 20.6098
637 2 2.2208 -0.100181 12.4541 22.244
441 1 -1.1104 4.05694 8.09959 20.8355
430 1 -1.1104 1.22399 5.34964 20.8116
636 2 2.2208 -0.128413 9.56652 24.9693
608 2 2.2208 5.42311 6.58997 22.0665
609 2 2.2208 5.42499 12.3794 22.0058
610 1 -1.1104 1.13325 8.14031 23.5028
612 1 -1.1104 1.21378 8.04683 26.2767
614 1 -1.1104 1.14643 5.30404 23.4672
615 1 -1.1104 1.21366 11.0177 23.5334
618 2 2.2208 5.61558 9.53747 24.9471
619 1 -1.1104 1.18925 5.25055 26.3749
620 1 -1.1104 1.29812 10.9139 26.3472
623 1 -1.1104 4.08683 8.07884 23.6066
624 2 2.2208 2.59747 6.72927 24.9443
625 2 2.2208 2.72731 12.4052 25.0445
626 1 -1.1104 4.11307 8.01391 26.3894
627 2 2.2208 2.65183 9.57717 22.1532
628 1 -1.1104 4.05536 5.32057 23.5955
629 1 -1.1104 4.01561 11.0344 23.4518
630 1 -1.1104 4.10876 5.33685 26.4098
631 1 -1.1104 4.02769 10.9638 26.3317
376 2 2.2208 -0.225615 6.74064 22.1219
415 1 -1.1104 9.66056 16.8554 23.5622
573 1 -1.1104 12.4392 16.8172 26.435
670 1 -1.1104 6.80986 19.4172 23.7155
477 1 -1.1104 9.74135 10.9018 20.7644
458 1 -1.1104 12.4058 8.17172 20.7831
475 1 -1.1104 9.75594 5.39607 20.8139
465 1 -1.1104 12.4315 10.9544 20.8444
616 1 -1.1104 6.96174 5.34301 23.5311
423 1 -1.1104 6.79215 8.11646 20.6976
434 1 -1.1104 6.93962 5.25488 20.6863
463 1 -1.1104 12.757 5.43043 21.0006
436 1 -1.1104 6.87053 11.1071 20.7755
617 1 -1.1104 6.91848 10.9545 23.6254
611 1 -1.1104 6.95297 8.07152 23.4165
622 1 -1.1104 6.85777 10.9937 26.5718
621 1 -1.1104 6.98611 5.33879 26.4511
613 1 -1.1104 6.95839 8.2352 26.2204
639 1 -1.1104 9.57195 10.8857 26.4622
640 1 -1.1104 9.69354 5.48407 26.373
641 1 -1.1104 9.55499 10.9596 23.6621
642 1 -1.1104 9.70985 5.39072 23.4983
643 2 2.2208 8.34932 9.45695 22.1633
644 1 -1.1104 9.61288 8.13322 26.5017
645 2 2.2208 8.12443 12.3628 25.055
646 2 2.2208 8.35034 6.68778 24.9205
647 2 2.2208 11.128 6.7663 22.2193
648 2 2.2208 11.1787 12.4403 22.2106
649 1 -1.1104 12.544 8.2055 23.7836
650 1 -1.1104 12.4589 8.18667 26.4151
651 1 -1.1104 12.5562 5.29123 23.672
652 1 -1.1104 12.3994 10.9666 23.7621
653 2 2.2208 10.9688 9.63709 25.1878
654 1 -1.1104 12.6089 5.27875 26.5625
655 1 -1.1104 12.6112 11.0866 26.4647
656 1 -1.1104 9.78009 8.15862 23.6563
506 1 -1.1104 3.94612 19.4316 20.9425
504 1 -1.1104 4.01228 13.7949 20.7136
487 1 -1.1104 1.17135 19.4279 20.8874
485 1 -1.1104 1.21467 13.8539 20.7576
497 1 -1.1104 1.20732 16.7919 20.9619
511 1 -1.1104 4.00966 16.6636 20.7676
9166 2 2.2208 -0.197011 20.8582 25.1168
540 2 2.2208 -0.159021 15.256 24.8694
567 2 2.2208 2.58466 15.3362 22.1822
568 2 2.2208 2.5212 20.7949 22.3365
569 1 -1.1104 3.93751 16.6765 23.5399
571 1 -1.1104 1.19536 16.6856 23.708
599 1 -1.1104 4.03841 13.9241 26.4002
632 1 -1.1104 4.03913 16.7982 26.3814
633 2 2.2208 2.57087 18.0258 25.0408
634 1 -1.1104 3.89282 19.5462 26.4622
635 2 2.2208 5.43154 17.9853 22.227
658 1 -1.1104 1.31692 14.0126 23.6203
659 1 -1.1104 1.16302 19.4817 23.7308
663 1 -1.1104 3.93214 19.4159 23.6275
665 1 -1.1104 4.05144 13.8686 23.5865
667 1 -1.1104 1.05642 19.5922 26.5211
668 1 -1.1104 1.18467 16.7487 26.4126
669 1 -1.1104 1.24505 13.7125 26.5005
671 2 2.2208 5.36715 20.7055 25.0476
672 2 2.2208 5.3211 15.2307 25.0125
450 2 2.2208 -0.246938 18.0984 22.2876
638 1 -1.1104 12.5158 16.5237 23.5342
384 1 -1.1104 9.61976 19.4357 26.4487
449 1 -1.1104 9.6066 16.6387 26.1995
413 2 2.2208 8.10195 20.9628 22.2929
478 2 2.2208 10.9864 15.3083 24.96
606 1 -1.1104 12.3931 13.8556 26.3785
538 1 -1.1104 9.65605 16.6679 20.7211
607 1 -1.1104 12.4715 19.5633 26.5061
574 1 -1.1104 9.74162 13.6502 23.7257
452 2 2.2208 11.0587 20.8209 25.1278
383 1 -1.1104 9.64139 13.7393 26.4485
673 1 -1.1104 6.9449 13.8476 23.6544
526 1 -1.1104 12.2998 16.5761 20.7846
605 1 -1.1104 12.4071 19.4499 23.6953
491 1 -1.1104 6.80251 19.4523 20.8039
602 2 2.2208 8.18411 18.0903 24.9409
664 1 -1.1104 6.83071 13.8374 26.477
385 2 2.2208 8.25762 15.1158 22.2649
521 1 -1.1104 12.4752 19.4935 20.8023
489 1 -1.1104 6.9066 13.7714 20.8072
499 1 -1.1104 6.61981 16.5899 20.9305
531 1 -1.1104 9.63642 13.8591 20.8627
533 1 -1.1104 9.61624 19.4087 20.8248
519 1 -1.1104 12.4547 13.691 20.8606
601 1 -1.1104 9.60354 19.8904 23.5736
600 1 -1.1104 12.6071 13.8235 23.7025
8457 2 2.2208 5.39855 -4.3493 27.6966
328 2 2.2208 5.36837 1.16748 27.6407
333 2 2.2208 2.53915 3.89606 27.6489
597 2 2.2208 10.9741 1.04206 27.6804
336 2 2.2208 8.45979 4.00277 27.7104
9130 2 2.2208 -0.269404 6.75015 27.6794
412 2 2.2208 8.25472 15.2683 27.7108
320 2 2.2208 5.5957 4.10237 13.7615
321 2 2.2208 8.2405 1.23359 13.7276
451 2 2.2208 2.64458 12.4596 13.8608
9133 2 2.2208 -0.202021 9.59696 13.7819
326 2 2.2208 8.25132 6.99509 13.728
674 2 2.2208 5.17359 23.5555 5.23205
675 2 2.2208 5.31832 29.2918 5.35
676 1 -1.1104 1.0536 24.9708 1.26126
677 1 -1.1104 1.22439 24.9079 4.11098
678 1 -1.1104 1.19089 22.088 1.26889
679 1 -1.1104 1.09458 27.8302 1.14387
680 2 2.2208 5.18297 26.4681 2.48281
681 1 -1.1104 0.952641 22.0859 3.97773
682 1 -1.1104 1.1934 27.8351 3.96754
683 1 -1.1104 3.80927 25.0414 1.1431
684 2 2.2208 2.54341 23.5467 2.68107
685 2 2.2208 2.61484 29.2157 2.54973
686 1 -1.1104 3.89276 25.0448 4.07339
687 2 2.2208 2.52996 26.4446 5.47287
688 1 -1.1104 3.92706 22.2738 1.31166
689 1 -1.1104 3.92774 27.7587 1.06032
690 1 -1.1104 3.86862 22.2143 3.97673
691 1 -1.1104 3.93127 27.7038 3.97861
693 2 2.2208 -0.24098 23.564 5.3063
1006 2 2.2208 5.17019 23.6725 -0.249636
1233 2 2.2208 5.42303 29.3309 -0.295361
1007 2 2.2208 2.40635 26.4222 -0.253871
695 1 -1.1104 6.6761 25.0502 1.20511
698 1 -1.1104 6.55545 27.836 1.2135
700 1 -1.1104 6.65299 28.001 3.87092
9784 2 2.2208 -0.27681 26.2077 2.58175
9798 2 2.2208 -0.280086 29.3446 -0.108507
696 1 -1.1104 6.62628 25.0835 4.01776
697 1 -1.1104 6.71472 22.2134 1.04187
699 1 -1.1104 6.69798 22.342 3.88881
701 2 2.2208 11.0657 23.5063 5.16398
702 2 2.2208 10.82 29.1806 5.49942
703 1 -1.1104 12.1508 25.07 1.11911
704 1 -1.1104 12.2802 24.8698 3.71738
705 1 -1.1104 12.4083 22.2151 1.20423
706 1 -1.1104 12.2901 27.7562 1.07658
707 2 2.2208 10.8997 26.4518 2.52694
708 1 -1.1104 12.4511 22.1535 3.93459
709 1 -1.1104 12.4502 27.7992 3.71049
710 1 -1.1104 9.39992 24.9141 1.02771
711 2 2.2208 8.09096 23.7759 2.56138
712 2 2.2208 8.1496 29.3753 2.50735
713 1 -1.1104 9.44685 25.0984 4.2504
714 2 2.2208 7.96676 26.486 5.27374
715 1 -1.1104 9.62937 22.2913 1.2552
716 1 -1.1104 9.49035 27.8427 1.24615
717 1 -1.1104 9.57691 22.2139 3.95204
718 1 -1.1104 9.42209 27.7383 3.87498
850 1 -1.1104 12.4426 27.9784 6.4854
1011 2 2.2208 10.9908 23.5945 -0.119917
1012 2 2.2208 7.96422 26.4977 -0.084197
1349 1 -1.1104 0.749584 47.3456 1.03758
723 2 2.2208 5.33441 34.8581 5.28326
724 1 -1.1104 1.18737 30.712 0.977202
725 1 -1.1104 0.887262 36.1162 1.07444
727 1 -1.1104 1.39972 30.5957 3.89249
728 1 -1.1104 0.987618 36.2412 3.89232
730 1 -1.1104 1.14456 33.4503 1.13815
731 2 2.2208 5.28617 32.1378 2.51152
732 2 2.2208 5.29304 37.6327 2.50891
733 1 -1.1104 1.144 33.4778 3.97043
735 1 -1.1104 3.9328 30.7712 1.03921
736 1 -1.1104 3.86684 36.1091 1.24921
737 2 2.2208 2.44545 34.7681 2.48291
738 1 -1.1104 3.98518 30.6001 3.85793
739 1 -1.1104 3.97984 36.2275 3.98694
740 2 2.2208 2.53632 32.2234 5.33295
741 2 2.2208 2.54516 37.6477 5.27738
742 1 -1.1104 3.96335 33.4699 1.05721
743 1 -1.1104 3.94337 33.406 3.90825
877 1 -1.1104 3.90825 33.4208 6.70381
1013 2 2.2208 2.31901 37.5285 -0.112568
989 2 2.2208 13.6398 32.1021 10.8431
9673 2 2.2208 -0.26193 29.1724 10.8903
1015 2 2.2208 5.32443 34.9506 -0.232914
9787 2 2.2208 -0.232335 32.1104 2.56939
990 2 2.2208 13.6008 40.4531 8.08083
1018 2 2.2208 11.0401 34.8478 -0.280218
747 1 -1.1104 6.78106 30.7617 3.91527
729 1 -1.1104 6.70544 36.215 3.9914
746 1 -1.1104 6.71194 30.7511 1.17735
734 1 -1.1104 6.90531 33.5983 3.89323
726 1 -1.1104 6.75053 36.1338 1.04163
748 1 -1.1104 6.70614 33.5301 1.06978
749 2 2.2208 10.836 34.7303 5.27853
750 1 -1.1104 12.3105 30.588 0.922557
751 1 -1.1104 12.3307 36.2218 1.11253
752 1 -1.1104 12.346 30.5107 3.96127
753 1 -1.1104 12.2385 36.2838 3.95356
754 1 -1.1104 12.0607 33.324 1.13881
755 2 2.2208 10.845 31.9823 2.54189
756 2 2.2208 10.9692 37.7376 2.52375
757 1 -1.1104 12.2759 33.3332 3.84533
758 1 -1.1104 9.41036 30.6017 1.18493
759 1 -1.1104 9.53896 36.4033 1.23155
760 2 2.2208 8.13685 34.7898 2.43434
761 1 -1.1104 9.47028 30.5706 4.08985
762 1 -1.1104 9.52813 36.2185 3.80364
763 2 2.2208 8.12291 32.0729 5.39257
764 2 2.2208 8.16983 37.641 5.31076
765 1 -1.1104 9.37516 33.474 1.17322
766 1 -1.1104 9.63748 33.2421 3.96665
1017 2 2.2208 8.24593 37.5323 -0.336651
904 1 -1.1104 12.2271 33.4266 6.71566
903 1 -1.1104 12.3289 36.2303 6.74803
694 2 2.2208 10.8361 40.3172 11.0374
1344 2 2.2208 2.43605 43.2151 -0.257033
774 1 -1.1104 1.07531 39.0009 1.04808
788 1 -1.1104 3.81582 38.9315 0.959246