ITEM: TIMESTEP
60000
ITEM: NUMBER OF ATOMS
17820
ITEM: BOX BOUNDS pp pp pp
-3.6359540740836077e-01 2.7703595407408770e+01
-4.4088568127350820e+00 3.3248885681273214e+02
-3.6787033372483324e-01 2.7707870333724866e+01
ITEM: ATOMS id type q x y z
1 2 2.2208 5.3072 1.1755 5.2525
2 1 -1.1104 0.99378 -2.87775 1.08279
3 1 -1.1104 1.01687 2.70184 1.10132
6 1 -1.1104 1.08739 -3.14554 3.91321
7 1 -1.1104 1.09518 2.59292 3.91494
10 1 -1.1104 1.03018 0.000182844 1.03879
12 2 2.2208 5.25206 -1.67199 2.48113
13 2 2.2208 5.15795 3.92911 2.46292
14 1 -1.1104 1.14889 -0.203805 4.02637
16 1 -1.1104 3.76942 -2.94308 1.13386
17 1 -1.1104 3.78765 2.55731 1.01634
18 2 2.2208 2.39927 1.22914 2.52968
19 1 -1.1104 3.94191 -2.96345 3.97661
20 1 -1.1104 3.93956 2.46654 3.90249
21 2 2.2208 2.4382 -1.67144 5.29821
22 2 2.2208 2.40346 3.96753 5.24107
23 1 -1.1104 3.91256 -0.237462 1.03109
24 1 -1.1104 3.80314 -0.250801 3.84746
8440 2 2.2208 2.3659 -4.41348 2.48949
9124 2 2.2208 -0.462023 3.95246 2.45595
166 1 -1.1104 0.965931 -2.89889 6.68609
8 1 -1.1104 6.75478 -3.10782 3.78429
11 1 -1.1104 6.57553 -0.299435 0.922211
5 1 -1.1104 6.5592 2.55524 1.10264
8441 2 2.2208 5.15801 -4.38671 5.3529
167 1 -1.1104 1.02362 2.45338 6.57245
170 1 -1.1104 0.970466 -0.169611 6.57929
173 1 -1.1104 3.91785 2.72009 6.63954
169 1 -1.1104 6.53249 2.55747 6.76787
174 1 -1.1104 3.77784 -0.132868 6.62679
168 1 -1.1104 6.51487 -3.12957 6.68124
172 1 -1.1104 3.72275 -2.85025 6.75284
171 1 -1.1104 6.52896 -0.38348 6.67255
289 1 -1.1104 6.54336 16.5797 9.52682
202 1 -1.1104 9.51217 13.7721 12.2426
4 1 -1.1104 6.72094 -3.01447 1.11868
9 1 -1.1104 6.64825 2.63874 3.84508
15 1 -1.1104 6.58113 -0.340714 3.89016
31 2 2.2208 10.773 1.11521 5.25795
32 1 -1.1104 12.3579 -2.895 1.05089
33 1 -1.1104 12.2105 2.53318 1.0635
34 1 -1.1104 12.3042 -3.17267 3.85148
35 1 -1.1104 12.3244 2.55174 3.8762
36 1 -1.1104 12.2013 -0.17843 1.12307
37 2 2.2208 10.7945 -1.66319 2.41499
38 2 2.2208 10.8048 3.8535 2.45085
39 1 -1.1104 12.243 -0.408765 3.83483
40 1 -1.1104 9.50172 -3.11477 0.96595
41 1 -1.1104 9.26353 2.49882 1.04766
42 2 2.2208 7.9375 1.09765 2.38518
43 1 -1.1104 9.49484 -3.01618 3.87703
44 1 -1.1104 9.47757 2.48272 3.76212
45 2 2.2208 7.96642 -1.65775 5.30416
46 2 2.2208 8.03931 4.01944 5.2019
47 1 -1.1104 9.44138 -0.384302 0.987819
48 1 -1.1104 9.39978 -0.152679 3.67001
208 1 -1.1104 9.49883 -3.04655 6.59539
49 2 2.2208 13.5022 1.00181 2.50939
206 1 -1.1104 12.1623 2.35908 6.73003
207 1 -1.1104 12.1094 -0.385902 6.58026
8450 2 2.2208 13.684 -4.41392 8.1818
8443 2 2.2208 8.17769 -4.33524 2.45029
210 1 -1.1104 9.33585 -0.271043 6.65457
81 2 2.2208 -0.400872 6.89819 5.38555
54 2 2.2208 5.17081 6.87325 5.28341
55 2 2.2208 5.28013 12.3725 5.37008
56 1 -1.1104 1.02939 8.23296 1.0876
58 1 -1.1104 1.10253 8.24529 3.90784
60 1 -1.1104 0.908619 5.42337 1.12868
61 1 -1.1104 1.1374 11.1075 1.03813
66 2 2.2208 5.23824 9.54287 2.42845
67 1 -1.1104 0.921972 5.36214 3.93731
68 1 -1.1104 1.06007 10.9798 3.74396
71 1 -1.1104 3.73834 8.28378 1.18035
72 2 2.2208 2.35413 6.68968 2.39036
73 2 2.2208 2.61484 12.3438 2.52665
74 1 -1.1104 3.86854 8.10281 3.87064
75 2 2.2208 2.4275 9.60349 5.3346
76 1 -1.1104 3.71275 5.38599 1.09869
77 1 -1.1104 3.93621 10.9996 0.991822
79 1 -1.1104 3.84462 5.24151 3.85883
80 1 -1.1104 3.89722 10.8824 3.92328
82 2 2.2208 -0.449452 9.53935 2.47864
236 1 -1.1104 1.00816 5.4353 6.81286
78 1 -1.1104 3.79824 11.0062 6.7929
83 2 2.2208 -0.217674 12.2998 5.09039
59 1 -1.1104 6.64405 8.20181 3.87879
63 1 -1.1104 6.40517 5.45888 1.1302
70 1 -1.1104 6.7913 11.0921 3.88556
342 2 2.2208 10.8312 12.4994 -0.342636
69 1 -1.1104 6.55716 5.37981 3.80869
57 1 -1.1104 6.64284 8.22716 1.04081
64 1 -1.1104 6.61887 10.9389 1.20454
84 2 2.2208 10.7126 6.73713 5.41547
85 2 2.2208 10.8168 12.3606 5.18769
86 1 -1.1104 12.1356 8.29657 1.08718
87 1 -1.1104 12.1503 7.89912 3.80492
88 1 -1.1104 12.3658 5.32945 0.956539
89 1 -1.1104 12.2299 10.9763 1.19239
91 2 2.2208 10.844 9.49574 2.51007
92 1 -1.1104 12.4996 5.07179 3.68427
93 1 -1.1104 12.4546 10.9706 3.92732
94 1 -1.1104 9.47054 8.05307 1.2298
95 2 2.2208 7.92491 6.78135 2.50305
96 2 2.2208 8.04608 12.4395 2.58737
97 1 -1.1104 9.47074 8.30469 4.11754
98 2 2.2208 8.03461 9.64603 5.31681
99 1 -1.1104 9.38255 5.20009 1.20592
100 1 -1.1104 9.45919 10.933 1.14629
102 1 -1.1104 9.4342 5.47503 3.90788
103 1 -1.1104 9.53092 10.9947 3.81313
65 1 -1.1104 6.70312 10.9526 6.82032
265 1 -1.1104 12.3603 8.04776 6.75046
237 1 -1.1104 6.64981 5.23374 6.64604
8444 2 2.2208 10.9129 -4.42171 5.32481
331 2 2.2208 2.48182 20.7382 -0.346763
106 2 2.2208 5.29636 17.9506 5.41886
107 1 -1.1104 1.03542 13.7232 1.12984
109 1 -1.1104 1.23265 19.4213 1.17456
113 1 -1.1104 1.08326 13.7879 3.93353
114 1 -1.1104 0.973019 19.3332 3.84317
116 1 -1.1104 1.11845 16.6891 1.03287
119 2 2.2208 5.29752 15.2257 2.53851
120 2 2.2208 5.25539 20.7848 2.43487
121 1 -1.1104 1.27039 16.612 3.94385
123 1 -1.1104 3.80852 13.8061 1.21357
125 1 -1.1104 4.1424 19.2919 1.08778
127 2 2.2208 2.4334 17.9037 2.50465
128 1 -1.1104 3.89828 13.6808 3.97046
129 1 -1.1104 3.88426 19.2888 3.98975
130 2 2.2208 2.49523 15.0826 5.27524
131 2 2.2208 2.35525 20.6598 5.22147
132 1 -1.1104 3.93951 16.5302 1.09943
134 1 -1.1104 3.94654 16.5645 4.02898
108 1 -1.1104 1.20061 13.5468 6.64042
329 2 2.2208 2.34323 15.0382 -0.288685
330 2 2.2208 5.33272 17.9515 -0.231277
124 1 -1.1104 4.09172 13.7676 6.65448
8863 2 2.2208 -0.390168 17.9929 5.3142
317 2 2.2208 8.01661 15.1758 10.8495
122 1 -1.1104 6.64776 16.574 3.85391
140 1 -1.1104 6.78888 16.5656 1.20287
138 1 -1.1104 6.81204 19.5224 1.03186
111 1 -1.1104 6.76629 13.8816 6.75718
335 2 2.2208 8.25094 20.7676 -0.401005
110 1 -1.1104 6.58881 13.7981 1.02197
139 1 -1.1104 6.64634 19.3847 4.08024
115 1 -1.1104 6.59746 13.8477 4.05519
141 2 2.2208 10.9444 17.9951 5.30164
142 1 -1.1104 12.4703 13.844 1.04046
144 1 -1.1104 12.4063 19.4251 0.95935
146 1 -1.1104 12.2146 13.7345 3.78158
147 1 -1.1104 12.3556 19.437 3.77041
148 1 -1.1104 12.3465 16.5258 1.04457
150 2 2.2208 10.8937 15.1517 2.44478
151 2 2.2208 11.0026 20.7121 2.42306
152 1 -1.1104 12.3309 16.6971 3.82604
153 1 -1.1104 9.3482 13.7455 1.0782
155 1 -1.1104 9.45527 19.255 0.960639
157 2 2.2208 8.13191 18.0102 2.47076
158 1 -1.1104 9.42994 13.8001 3.91067
159 1 -1.1104 9.5687 19.3409 3.79579
160 2 2.2208 8.10614 15.262 5.24364
161 2 2.2208 8.1192 20.7773 5.33342
162 1 -1.1104 9.70888 16.5557 0.94634
164 1 -1.1104 9.63198 16.5771 3.81344
412 2 2.2208 7.95321 15.141 -0.342674
143 1 -1.1104 12.3564 13.8046 6.60392
163 1 -1.1104 9.33492 16.699 6.67387
118 1 -1.1104 6.57027 16.6691 6.75298
149 1 -1.1104 12.1432 16.4922 6.70715
156 1 -1.1104 9.49356 19.5812 6.80682
288 1 -1.1104 6.68467 19.5407 9.52955
9058 2 2.2208 -0.334679 6.79195 10.8809
8835 2 2.2208 -0.438775 20.8845 8.06273
8447 2 2.2208 5.19486 -4.4344 10.9401
175 2 2.2208 5.14834 1.24483 10.8702
176 1 -1.1104 1.07065 -3.03868 12.2648
177 1 -1.1104 1.08369 2.3478 12.1589
180 1 -1.1104 1.09005 -3.07514 9.51007
181 1 -1.1104 1.09408 2.58278 9.31916
184 1 -1.1104 0.867606 -0.369878 12.147
186 2 2.2208 5.11093 -1.63377 8.02503
188 1 -1.1104 1.04359 -0.315596 9.41799
190 1 -1.1104 3.81705 -3.05618 12.3092
191 1 -1.1104 3.92181 2.44338 12.3922
192 2 2.2208 2.43919 1.18378 8.03243
193 1 -1.1104 3.74361 -3.12943 9.52186
194 1 -1.1104 3.79467 2.56082 9.48717
195 2 2.2208 2.40584 -1.5883 10.8075
197 1 -1.1104 3.70018 -0.396315 12.2844
198 1 -1.1104 3.77056 -0.233471 9.47851
196 2 2.2208 2.33927 4.04556 10.9476
187 2 2.2208 5.26749 4.03618 8.12812
201 2 2.2208 -0.135716 1.05545 10.7485
8445 2 2.2208 13.6895 -4.3679 2.51158
204 2 2.2208 -0.354942 -4.38986 10.89
104 1 -1.1104 12.274 19.3871 12.36
183 1 -1.1104 6.68934 2.60207 9.4837
179 1 -1.1104 6.62827 2.66976 12.1711
199 2 2.2208 -0.374006 3.97927 8.08978
8460 2 2.2208 8.00805 -4.33713 13.6469
8449 2 2.2208 10.8258 -4.50017 10.7882
209 1 -1.1104 9.48003 2.60855 6.64279
178 1 -1.1104 6.70013 -2.89876 12.2531
189 1 -1.1104 6.64764 0.00538011 9.43848
185 1 -1.1104 6.54187 -0.13347 12.3506
52 2 2.2208 13.6431 6.88445 8.2598
205 1 -1.1104 12.3703 -3.10743 6.8222
182 1 -1.1104 6.69826 -2.74607 9.31201
211 2 2.2208 10.9854 1.19086 10.8833
212 1 -1.1104 12.3508 -2.92146 12.5298
213 1 -1.1104 12.3105 2.85272 12.2985
214 1 -1.1104 12.271 -3.08409 9.67051
215 1 -1.1104 12.3091 2.63566 9.50194
216 1 -1.1104 12.1879 -0.0393273 12.3911
217 2 2.2208 10.8936 -1.69408 8.08604
218 2 2.2208 10.8475 3.93749 8.10323
219 1 -1.1104 12.3071 -0.325767 9.4361
220 1 -1.1104 9.60024 -2.97711 12.0994
221 1 -1.1104 9.60671 2.66042 12.3972
222 2 2.2208 8.09326 1.25663 8.12144
223 1 -1.1104 9.43824 -2.97019 9.33326
224 1 -1.1104 9.56603 2.5815 9.60774
225 2 2.2208 8.01359 -1.45885 10.8263
227 1 -1.1104 9.42806 -0.0745634 12.4207
228 1 -1.1104 9.4708 -0.0817195 9.53702
226 2 2.2208 8.14237 3.92262 10.9281
200 2 2.2208 -0.339755 -1.64363 8.04281
137 2 2.2208 10.8894 15.1603 7.99449
316 2 2.2208 8.03256 20.8333 10.9068
154 1 -1.1104 9.46712 13.8386 6.63032
321 2 2.2208 8.1757 1.37857 13.6031
414 2 2.2208 10.7757 -1.40862 13.7011
238 1 -1.1104 3.98662 8.21885 6.65027
62 1 -1.1104 0.870761 10.9177 6.5484
234 1 -1.1104 1.01342 8.0702 6.64008
239 1 -1.1104 3.80829 5.46086 6.72425
28 2 2.2208 -0.302967 9.61159 7.99948
29 2 2.2208 -0.290183 12.4098 10.8133
240 2 2.2208 5.28369 6.84921 10.9578
241 2 2.2208 5.26252 12.4522 11.0459
242 1 -1.1104 1.09608 8.25026 12.1364
244 1 -1.1104 1.0863 8.21073 9.52397
246 1 -1.1104 1.02547 5.44877 12.1331
247 1 -1.1104 1.04644 11.0812 12.1505
250 2 2.2208 5.40353 9.66236 8.14348
251 1 -1.1104 1.08167 5.36468 9.5375
252 1 -1.1104 1.10544 10.9826 9.15746
255 1 -1.1104 3.9344 8.04805 12.3399
256 2 2.2208 2.47252 6.72578 8.04848
257 2 2.2208 2.56938 12.4811 8.20608
258 1 -1.1104 3.96255 8.28597 9.41486
259 2 2.2208 2.49483 9.55305 10.8374
260 1 -1.1104 3.77929 5.20829 12.1702
261 1 -1.1104 3.83946 10.9469 12.4675
262 1 -1.1104 3.89039 5.38388 9.47849
263 1 -1.1104 3.8774 11.0964 9.69531
8972 2 2.2208 -0.378468 15.1705 2.53266
9125 2 2.2208 -0.273181 17.989 -0.384182
8930 2 2.2208 13.6877 15.2322 5.13974
267 1 -1.1104 9.45411 8.26249 6.79842
253 1 -1.1104 6.82483 5.44585 9.69165
249 1 -1.1104 6.70474 11.0429 12.2898
254 1 -1.1104 6.58347 11.0589 9.57372
311 1 -1.1104 12.2774 16.5802 9.60302
235 1 -1.1104 6.63198 8.12931 6.61271
90 1 -1.1104 12.3537 10.8877 6.73063
266 1 -1.1104 12.147 5.13515 6.59252
101 1 -1.1104 9.33824 11.1799 6.57089
245 1 -1.1104 6.80019 8.25129 9.46846
269 1 -1.1104 9.38173 5.41747 6.67766
243 1 -1.1104 6.72737 8.30739 12.2891
248 1 -1.1104 6.67257 5.41902 12.3744
264 1 -1.1104 9.33628 11.1507 9.34211
268 1 -1.1104 9.47784 5.44324 9.46665
270 1 -1.1104 9.65637 11.0352 12.2203
271 1 -1.1104 9.50184 5.41173 12.2908
272 2 2.2208 8.09329 9.69472 10.8301
273 1 -1.1104 9.53836 8.23989 9.52538
274 2 2.2208 8.00837 12.4622 8.13054
275 2 2.2208 8.06741 6.76456 8.10813
276 2 2.2208 10.8483 6.84725 10.9416
277 2 2.2208 10.9569 12.5411 10.9221
278 1 -1.1104 12.285 8.26192 12.208
279 1 -1.1104 12.2611 8.36265 9.46266
280 1 -1.1104 12.2576 5.66284 12.4921
281 1 -1.1104 12.3581 11.0582 12.3574
282 2 2.2208 10.8884 9.6005 8.2117
283 1 -1.1104 12.2395 5.51559 9.4859
284 1 -1.1104 12.3274 11.0958 9.60449
285 1 -1.1104 9.58749 8.26614 12.2772
9136 2 2.2208 -0.452216 1.21419 -0.371705
313 2 2.2208 -0.263487 15.0904 8.13833
296 1 -1.1104 6.66107 19.4661 12.3393
117 1 -1.1104 1.1781 16.3744 6.75981
133 1 -1.1104 3.78125 16.5164 6.90172
312 2 2.2208 -0.333421 17.8672 11.0355
126 1 -1.1104 3.83263 19.3619 6.58145
302 1 -1.1104 0.957387 19.3185 6.70314
286 1 -1.1104 3.72815 19.5746 12.277
287 1 -1.1104 3.85572 13.836 12.3847
291 1 -1.1104 1.18541 19.462 9.43098
292 1 -1.1104 1.04601 16.6423 9.62129
293 2 2.2208 5.28758 20.7637 8.07876
294 1 -1.1104 1.25382 13.934 9.52703
295 2 2.2208 5.15064 15.2574 8.13285
298 1 -1.1104 1.066 19.3765 12.3386
299 1 -1.1104 0.864461 13.8297 12.281
300 2 2.2208 5.18624 18.046 10.9789
301 1 -1.1104 3.98887 19.2459 9.39884
303 2 2.2208 2.45584 17.9743 8.01669
304 1 -1.1104 3.80623 16.6251 9.55857
305 1 -1.1104 3.90275 13.8493 9.60926
307 1 -1.1104 1.1374 16.5429 12.5264
308 1 -1.1104 3.83067 16.7269 12.3785
309 2 2.2208 2.40677 20.8235 10.9111
310 2 2.2208 2.46044 15.2678 10.9049
306 1 -1.1104 6.79134 16.6282 12.2913
9354 2 2.2208 -0.435585 15.2104 13.7866
8442 2 2.2208 -0.266872 -4.44889 5.31646
50 2 2.2208 13.5744 -1.77405 5.216
145 1 -1.1104 12.1605 19.3518 6.67036
136 1 -1.1104 12.2542 16.5603 12.2852
165 2 2.2208 10.8398 20.8734 8.02817
231 2 2.2208 8.09383 17.966 8.30047
203 1 -1.1104 9.34728 19.1467 12.1824
314 1 -1.1104 9.39544 16.4938 9.43752
290 1 -1.1104 6.67866 13.6715 9.5663
315 1 -1.1104 9.52291 16.5833 12.3097
27 1 -1.1104 12.3957 13.8058 12.3018
232 1 -1.1104 9.50008 13.8477 9.52551
26 2 2.2208 10.9581 18.0342 10.9344
233 1 -1.1104 9.36476 19.3968 9.43915
105 1 -1.1104 12.2322 13.7649 9.2965
297 1 -1.1104 6.64803 13.7513 12.3121
112 1 -1.1104 6.77447 19.4141 6.86456
135 1 -1.1104 12.3752 19.4133 9.74979
542 2 2.2208 10.8338 18.0842 -0.405474
319 2 2.2208 2.42369 1.22753 13.7923
325 2 2.2208 8.14462 12.2607 13.6655
453 2 2.2208 10.9554 9.55114 13.8733
513 2 2.2208 2.42268 18.0766 13.7175
332 2 2.2208 2.56772 -1.63491 -0.399666
9355 2 2.2208 -0.293231 20.8548 13.7427
8457 2 2.2208 5.33459 -4.36435 -0.252551
408 2 2.2208 13.7423 12.3657 13.7799
328 2 2.2208 5.14415 1.19222 -0.36431
333 2 2.2208 2.26931 3.99916 -0.372711
9207 2 2.2208 13.6768 3.90858 -0.27141
336 2 2.2208 8.05173 4.0365 -0.236191
340 2 2.2208 -0.251804 12.3744 -0.372088
339 2 2.2208 5.29993 12.2647 -0.371355
338 2 2.2208 2.44631 9.74736 -0.214026
341 2 2.2208 8.07576 9.65691 -0.285839
343 2 2.2208 5.39709 1.15671 16.5524
344 1 -1.1104 1.23801 -2.93253 17.8958
345 1 -1.1104 0.942787 2.53081 18.0867
348 1 -1.1104 1.16715 -2.96668 15.1846
350 1 -1.1104 1.17936 2.38287 15.2117
356 1 -1.1104 1.07573 -0.0941376 17.9974
358 2 2.2208 5.44868 -1.63906 19.3358
359 2 2.2208 5.17859 3.9942 19.3248
360 1 -1.1104 1.12781 -0.344298 15.1548
364 1 -1.1104 4.13268 -3.08219 17.9588
365 1 -1.1104 3.75812 2.66637 17.8446
366 2 2.2208 2.3893 1.30081 19.3964
367 1 -1.1104 3.90427 -2.85481 15.098
369 1 -1.1104 3.94346 2.75237 15.2466
371 2 2.2208 2.60326 -1.50369 16.61
373 1 -1.1104 3.93299 -0.279379 18.1141
374 1 -1.1104 3.9472 -0.0673233 15.1034
372 2 2.2208 2.4621 4.05248 16.3972
8608 2 2.2208 2.57777 -4.41528 19.4223
379 2 2.2208 -0.160135 1.22252 16.4884
8606 2 2.2208 8.16894 -4.4884 19.3117
380 2 2.2208 -0.321816 -1.63972 19.2868
370 1 -1.1104 3.82572 2.72411 20.7131
361 1 -1.1104 1.00609 -0.148895 20.7432
368 1 -1.1104 3.9647 -2.88357 20.6315
351 1 -1.1104 1.00366 2.74274 20.9047
349 1 -1.1104 1.12453 -2.99469 20.6274
375 1 -1.1104 3.82252 -0.182436 20.7873
9166 2 2.2208 -0.297947 20.7939 25.0071
8644 2 2.2208 5.33907 -4.40197 16.4394
576 2 2.2208 -0.281673 -1.57886 24.8624
352 1 -1.1104 6.8656 -2.93461 15.0948
362 1 -1.1104 6.76645 -0.18742 15.1418
347 1 -1.1104 6.81956 2.54607 17.9747
357 1 -1.1104 6.69218 -0.153593 18.0118
354 1 -1.1104 6.74482 2.57286 15.0286
346 1 -1.1104 6.88162 -3.01004 18.0152
386 2 2.2208 10.8937 1.2866 16.389
387 1 -1.1104 12.2776 2.41595 18.0285
388 1 -1.1104 12.2915 -2.86334 15.542
389 1 -1.1104 12.3901 2.52616 15.1173
391 1 -1.1104 12.1941 -0.3542 17.9403
392 2 2.2208 10.7803 -1.57867 19.3854
393 2 2.2208 10.8994 3.9411 19.3538
394 1 -1.1104 12.2953 -0.15699 15.1107
396 1 -1.1104 9.83971 -3.19147 17.8819
397 1 -1.1104 9.53818 2.60472 17.839
398 2 2.2208 8.17603 1.32348 19.3834
399 1 -1.1104 9.55872 -2.83596 14.9481
401 1 -1.1104 9.56161 2.72621 15.1252
403 2 2.2208 8.17867 -1.60312 16.5142
405 1 -1.1104 9.3048 -0.312365 17.9943
406 1 -1.1104 9.44964 -0.0112403 15.1379
404 2 2.2208 8.08528 4.05495 16.4529
355 1 -1.1104 6.65762 2.67084 20.7399
407 1 -1.1104 9.45642 -0.153184 20.7795
402 1 -1.1104 9.55332 2.61022 20.6556
382 2 2.2208 -0.337815 12.5668 16.3919
416 2 2.2208 5.33404 6.81558 16.5057
417 2 2.2208 5.23651 12.4721 16.4924
418 1 -1.1104 1.1309 8.1077 17.8583
420 1 -1.1104 0.982818 8.38721 14.9394
424 1 -1.1104 1.05875 5.34194 17.9471
425 1 -1.1104 0.91633 11.0054 17.8728
428 2 2.2208 5.18177 9.68589 19.1835
429 1 -1.1104 1.19132 5.54406 15.2309
431 1 -1.1104 1.1006 11.1337 15.0269
437 1 -1.1104 3.87344 8.20102 17.8543
438 2 2.2208 2.54934 6.84715 19.1871
439 2 2.2208 2.42363 12.4563 19.202
440 1 -1.1104 3.72756 8.24587 15.042
442 2 2.2208 2.36664 9.71226 16.394
443 1 -1.1104 3.91329 5.46904 17.944
444 1 -1.1104 3.73848 11.0253 17.9036
445 1 -1.1104 3.92713 5.47395 14.8851
447 1 -1.1104 3.98552 11.2542 15.1874
9282 2 2.2208 -0.412777 6.84091 16.4927
378 2 2.2208 -0.404868 9.72752 19.2787
446 1 -1.1104 3.90681 5.47305 20.8392
432 1 -1.1104 1.06941 11.1047 20.5608
427 1 -1.1104 6.60524 11.0604 18.0675
448 1 -1.1104 3.75684 10.9896 20.6855
441 1 -1.1104 3.79665 8.24388 20.4985
323 2 2.2208 2.41924 6.75514 13.6329
435 1 -1.1104 6.64434 11.0684 14.9819
422 1 -1.1104 6.77777 8.36088 15.1054
426 1 -1.1104 6.66772 5.30292 17.9585
433 1 -1.1104 6.68992 5.51762 15.1625
419 1 -1.1104 6.69596 8.11028 17.9572
454 2 2.2208 10.849 6.80385 16.5876
455 2 2.2208 10.8646 12.4537 16.5109
456 1 -1.1104 12.2961 8.23424 18.0046
457 1 -1.1104 12.1349 8.24609 15.3135
459 1 -1.1104 12.2762 5.31397 17.9009
460 1 -1.1104 12.2278 11.1791 17.8781
461 2 2.2208 10.901 9.68378 19.3378
462 1 -1.1104 12.3446 5.37411 15.2413
464 1 -1.1104 12.322 10.8832 15.1618
466 1 -1.1104 9.64709 8.01925 18.0781
467 2 2.2208 8.02627 6.86745 19.3729
468 2 2.2208 8.03183 12.4821 19.3589
469 1 -1.1104 9.47163 8.11649 15.169
471 2 2.2208 8.14424 9.48797 16.5062
472 1 -1.1104 9.48099 5.33665 18.0174
473 1 -1.1104 9.48679 10.8845 17.9286
474 1 -1.1104 9.51302 5.44264 15.1172
476 1 -1.1104 9.51271 10.916 15.0728
458 1 -1.1104 12.2048 8.155 20.7964
423 1 -1.1104 6.60636 8.4232 20.743
436 1 -1.1104 6.60824 11.1791 20.8284
477 1 -1.1104 9.49442 10.9933 20.9166
434 1 -1.1104 6.59968 5.49172 20.6896
470 1 -1.1104 9.31582 8.2319 20.8568
475 1 -1.1104 9.43051 5.39525 20.7911
463 1 -1.1104 12.2369 5.33659 20.7469
9357 2 2.2208 -0.400247 4.12552 24.8122
9373 2 2.2208 13.7527 3.99969 22.2175
17655 2 2.2208 13.7994 -4.38033 24.914
479 2 2.2208 5.35762 18.0235 16.4717
480 1 -1.1104 1.06888 13.7889 17.8174
481 1 -1.1104 1.13456 19.4494 17.8829
484 1 -1.1104 1.11035 13.9526 14.9958
486 1 -1.1104 1.17708 19.5345 15.1736
492 1 -1.1104 1.05503 16.5406 17.8639
494 2 2.2208 5.38967 15.2954 19.2156
495 2 2.2208 5.3454 20.8911 19.3019
496 1 -1.1104 1.0173 16.6635 15.242
500 1 -1.1104 4.00093 13.7682 17.8037
501 1 -1.1104 3.96718 19.459 17.9522
502 2 2.2208 2.529 18.0363 19.2153
503 1 -1.1104 3.76785 13.9004 15.1301
505 1 -1.1104 3.87142 19.5145 15.0458
507 2 2.2208 2.52625 15.2971 16.4076
508 2 2.2208 2.64305 20.8764 16.5163
509 1 -1.1104 3.94566 16.8358 17.9137
510 1 -1.1104 3.9489 16.6868 15.1023
9352 2 2.2208 -0.288049 15.1967 19.2948
504 1 -1.1104 3.86856 13.7695 20.6495
485 1 -1.1104 1.09705 13.8107 20.7228
506 1 -1.1104 3.84734 19.325 20.6685
603 1 -1.1104 6.85231 19.2838 26.3543
490 1 -1.1104 6.81699 19.3653 15.1788
493 1 -1.1104 6.80389 16.6695 17.7053
483 1 -1.1104 6.66212 19.4095 17.9585
498 1 -1.1104 6.69217 16.5411 15.0626
482 1 -1.1104 6.71459 13.9482 18.0397
488 1 -1.1104 6.75715 13.7848 15.1576
541 2 2.2208 8.12712 17.8578 13.6673
515 2 2.2208 10.9612 17.8943 16.5338
516 1 -1.1104 12.4914 13.973 17.8909
517 1 -1.1104 12.2357 19.4325 18.0292
518 1 -1.1104 12.2168 13.8177 15.1377
520 1 -1.1104 12.4512 19.3299 15.3199
522 1 -1.1104 12.3886 16.6451 17.9072
523 2 2.2208 10.973 15.2215 19.3866
524 2 2.2208 10.849 20.8897 19.1727
525 1 -1.1104 12.2924 16.6676 14.9049
527 1 -1.1104 9.68933 13.8409 18.0069
528 1 -1.1104 9.59292 19.3507 17.7561
529 2 2.2208 8.194 18.0695 19.2995
530 1 -1.1104 9.42724 13.7782 15.1038
532 1 -1.1104 9.71339 19.1608 14.8942
534 2 2.2208 8.14787 15.2158 16.4909
535 2 2.2208 8.12694 20.7777 16.5092
536 1 -1.1104 9.60964 16.498 17.9129
537 1 -1.1104 9.5417 16.4573 15.0563
539 2 2.2208 10.8905 20.8133 13.6822
531 1 -1.1104 9.30841 13.8986 20.7834
526 1 -1.1104 12.3623 16.539 20.7344
660 2 2.2208 13.7078 12.4243 25.0634
8564 2 2.2208 -0.410873 -4.32457 22.1115
8563 2 2.2208 5.31885 -4.34944 22.1077
543 2 2.2208 5.22503 1.2556 22.1154
544 1 -1.1104 1.11396 -3.03214 23.4395
545 1 -1.1104 0.904984 2.63106 23.4437
548 1 -1.1104 1.06551 -2.88751 26.1643
549 1 -1.1104 0.891598 2.53126 26.3486
552 1 -1.1104 1.18951 -0.194505 23.5863
554 2 2.2208 5.22821 -1.5795 24.898
556 1 -1.1104 0.828067 -0.175657 26.3811
558 1 -1.1104 3.87754 -2.89661 23.3877
559 1 -1.1104 3.83609 2.68936 23.566
560 2 2.2208 2.31871 1.25552 24.8518
561 1 -1.1104 3.94465 -2.8751 26.3747
562 1 -1.1104 3.68528 2.59196 26.3161
563 2 2.2208 2.53339 -1.5457 22.1049
564 2 2.2208 2.43372 4.08213 22.1261
565 1 -1.1104 3.9445 -0.0600398 23.5948
566 1 -1.1104 3.62875 -0.287653 26.2325
555 2 2.2208 5.23622 4.0397 24.888
519 1 -1.1104 12.1681 13.7001 20.7206
546 1 -1.1104 6.40366 -3.02326 23.6221
557 1 -1.1104 6.53924 -0.127602 26.2611
9353 2 2.2208 -0.309861 17.9972 16.5967
385 2 2.2208 8.16655 15.3491 22.2364
601 1 -1.1104 9.47832 19.6697 23.5136
602 2 2.2208 8.19717 18.046 24.9273
533 1 -1.1104 9.36049 19.4673 20.5513
363 1 -1.1104 6.75863 -0.253954 20.836
550 1 -1.1104 6.60822 -3.00467 26.3642
395 1 -1.1104 12.2594 -0.665871 20.777
400 1 -1.1104 9.93261 -2.98524 20.8159
377 2 2.2208 13.6674 9.54927 22.1876
547 1 -1.1104 6.66311 2.54411 23.5985
353 1 -1.1104 6.89297 -3.0113 20.7897
390 1 -1.1104 12.3282 2.37604 20.9307
553 1 -1.1104 6.61713 -0.174004 23.5936
551 1 -1.1104 6.58301 2.58391 26.37
579 2 2.2208 10.948 1.11785 22.2342
580 1 -1.1104 12.4069 -3.08974 23.3167
581 1 -1.1104 12.4543 2.54885 23.694
582 1 -1.1104 12.2149 -3.06667 26.0671
583 1 -1.1104 12.3157 2.44951 26.4646
584 1 -1.1104 12.3338 -0.315755 23.5442
585 2 2.2208 10.8774 -1.59162 24.9523
586 2 2.2208 10.8709 3.88414 24.9256
587 1 -1.1104 12.167 -0.384913 26.4146
588 1 -1.1104 9.3821 -3.01543 23.7044
589 1 -1.1104 9.60301 2.55595 23.5204
590 2 2.2208 7.99827 1.22506 24.989
591 1 -1.1104 9.22992 -2.89158 26.3158
592 1 -1.1104 9.23386 2.65536 26.447
593 2 2.2208 8.0201 -1.49959 22.2244
594 2 2.2208 8.00895 4.0843 22.1952
595 1 -1.1104 9.43447 -0.168188 23.4697
596 1 -1.1104 9.41884 -0.103324 26.2892
597 2 2.2208 10.8106 1.10266 27.8099
598 2 2.2208 7.96045 -1.6249 27.7229
449 1 -1.1104 9.48585 16.7502 26.2923
9208 2 2.2208 13.7375 1.1284 25.0262
578 2 2.2208 11.0345 18.0807 22.0627
666 1 -1.1104 6.71026 16.555 26.516
605 1 -1.1104 12.2779 19.4092 23.6309
421 1 -1.1104 0.96072 8.34925 20.7101
636 2 2.2208 -0.353386 9.55538 24.9801
637 2 2.2208 -0.30718 12.4914 22.0326
384 1 -1.1104 9.61063 19.4881 26.2545
430 1 -1.1104 1.03625 5.47178 20.6842
608 2 2.2208 5.14293 6.83541 22.0736
609 2 2.2208 5.3742 12.4814 22.1478
610 1 -1.1104 0.972317 8.16988 23.6836
612 1 -1.1104 1.0556 8.16379 26.4416
614 1 -1.1104 1.06898 5.41776 23.5227
615 1 -1.1104 1.07658 10.8962 23.4596
618 2 2.2208 5.30976 9.53891 24.9341
619 1 -1.1104 1.05477 5.41513 26.3571
620 1 -1.1104 1.13276 11.0602 26.3371
623 1 -1.1104 3.71055 8.17887 23.4379
624 2 2.2208 2.37842 6.81891 24.83
625 2 2.2208 2.49716 12.3547 24.8058
626 1 -1.1104 3.88137 8.11928 26.3682
627 2 2.2208 2.4112 9.63282 22.0285
628 1 -1.1104 3.80482 5.49487 23.5634
629 1 -1.1104 3.91541 10.965 23.444
630 1 -1.1104 3.76107 5.38871 26.263
631 1 -1.1104 3.85808 10.9621 26.2123
611 1 -1.1104 6.56793 8.22943 23.5515
621 1 -1.1104 6.57675 5.43263 26.377
622 1 -1.1104 6.73064 10.9512 26.3768
606 1 -1.1104 12.2419 13.8015 26.4261
337 2 2.2208 5.06755 6.82225 27.8201
478 2 2.2208 10.9373 15.3139 25.0348
465 1 -1.1104 12.2397 10.8679 20.8756
573 1 -1.1104 12.4497 16.6456 26.2749
617 1 -1.1104 6.72938 10.9879 23.575
613 1 -1.1104 6.72553 8.20107 26.4402
616 1 -1.1104 6.70411 5.32917 23.5439
639 1 -1.1104 9.40072 11.1798 26.3999
640 1 -1.1104 9.45564 5.4496 26.3926
641 1 -1.1104 9.49401 10.9793 23.6276
642 1 -1.1104 9.63265 5.31669 23.5697
643 2 2.2208 8.02665 9.53944 22.2237
644 1 -1.1104 9.42609 8.30744 26.4742
645 2 2.2208 8.03161 12.4747 24.9735
646 2 2.2208 8.02209 6.88586 25.1037
647 2 2.2208 10.8479 6.78513 22.174
648 2 2.2208 10.7088 12.5285 22.2679
649 1 -1.1104 12.2695 8.20921 23.5768
650 1 -1.1104 12.3252 8.08515 26.4063
651 1 -1.1104 12.2684 5.50221 23.5515
652 1 -1.1104 12.3192 11.1043 23.6827
653 2 2.2208 10.9621 9.55628 25.067
654 1 -1.1104 12.2303 5.20701 26.2715
655 1 -1.1104 12.3297 11.0262 26.3679
656 1 -1.1104 9.52069 8.11646 23.5791
638 1 -1.1104 12.3823 16.7915 23.4752
670 1 -1.1104 6.83497 19.3016 23.4749
540 2 2.2208 -0.2518 15.2054 24.8232
450 2 2.2208 -0.230804 17.9444 22.1491
511 1 -1.1104 3.94347 16.5909 20.6818
487 1 -1.1104 1.29049 19.371 20.8602
497 1 -1.1104 1.14078 16.6055 20.8142
672 2 2.2208 5.29155 15.1848 25.064
671 2 2.2208 5.35618 20.6777 25.0928
669 1 -1.1104 1.07709 13.73 26.26
567 2 2.2208 2.47977 15.2383 22.085
568 2 2.2208 2.52171 20.722 22.1821
569 1 -1.1104 3.95522 16.6261 23.5769
571 1 -1.1104 1.24223 16.5539 23.4869
599 1 -1.1104 3.7912 13.7841 26.3213
632 1 -1.1104 3.8293 16.5343 26.564
633 2 2.2208 2.53511 17.8534 25.0047
634 1 -1.1104 3.97312 19.2543 26.4303
635 2 2.2208 5.26513 18.0692 22.1259
658 1 -1.1104 1.16404 13.7857 23.4537
659 1 -1.1104 1.25105 19.3923 23.6505
663 1 -1.1104 3.85884 19.4536 23.6581
665 1 -1.1104 4.04403 13.8486 23.5667
667 1 -1.1104 1.25703 19.3387 26.3636
668 1 -1.1104 1.09424 16.5497 26.2548
673 1 -1.1104 6.71412 13.8467 23.6388
600 1 -1.1104 12.0979 14.0087 23.6054
452 2 2.2208 11.0174 20.8901 24.9095
607 1 -1.1104 12.3629 19.3209 26.3273
574 1 -1.1104 9.42154 13.9039 23.5696
491 1 -1.1104 6.73379 19.5068 20.7583
415 1 -1.1104 9.61372 16.7611 23.5611
538 1 -1.1104 9.5608 16.7381 20.7529
489 1 -1.1104 6.71299 13.9141 20.7855
521 1 -1.1104 12.3865 19.4307 20.7375
413 2 2.2208 8.00987 20.7997 22.1501
383 1 -1.1104 9.42558 13.9273 26.2719
575 1 -1.1104 6.88081 16.5691 23.6575
499 1 -1.1104 6.79958 16.6889 20.7823
664 1 -1.1104 6.69688 13.7211 26.3989
8534 2 2.2208 10.9001 -4.34991 27.6435
657 2 2.2208 10.87 6.72782 27.7169
318 2 2.2208 5.30792 -1.60193 13.6362
320 2 2.2208 5.35433 4.03412 13.7029
322 2 2.2208 10.8937 4.12582 13.714
451 2 2.2208 2.49122 12.5355 13.6761
324 2 2.2208 5.27334 9.63345 13.7412
9133 2 2.2208 -0.304364 9.66368 13.6634
326 2 2.2208 8.09868 6.91982 13.6821
9130 2 2.2208 -0.298816 6.80801 27.7972
661 2 2.2208 13.5177 9.65936 27.8057
514 2 2.2208 5.26139 20.8425 13.6654
512 2 2.2208 5.27952 15.2019 13.6907
327 2 2.2208 10.875 15.1021 13.6854
674 2 2.2208 5.31692 23.5397 5.32156
675 2 2.2208 5.37451 29.2481 5.35565
676 1 -1.1104 1.10737 25.0605 1.13804
677 1 -1.1104 1.14884 24.9952 4.07229
678 1 -1.1104 1.0323 22.1924 1.17562
679 1 -1.1104 1.02934 27.7932 1.17397
680 2 2.2208 5.26379 26.3964 2.41698
681 1 -1.1104 1.12553 22.1929 3.84913
682 1 -1.1104 1.15166 27.9321 4.02999
683 1 -1.1104 3.89265 24.8552 1.01829
684 2 2.2208 2.37427 23.6052 2.54556
685 2 2.2208 2.52142 29.2417 2.58253
686 1 -1.1104 3.80699 24.9429 3.99281
687 2 2.2208 2.54565 26.5093 5.33822
688 1 -1.1104 4.04827 22.2094 1.18246
689 1 -1.1104 3.77371 27.7281 1.01486
690 1 -1.1104 3.73813 22.2733 3.8797
691 1 -1.1104 3.87777 27.8208 3.85648
965 1 -1.1104 9.5268 39.0927 12.2624
1233 2 2.2208 5.233 29.1931 -0.272642
700 1 -1.1104 6.70694 27.7762 3.85401
1007 2 2.2208 2.29628 26.3671 -0.342109
693 2 2.2208 -0.170849 23.5328 5.24357
1006 2 2.2208 5.32014 23.6205 -0.247119
699 1 -1.1104 6.60869 22.1051 3.97262
696 1 -1.1104 6.71912 25.081 3.89658
821 1 -1.1104 4.00313 25.0277 6.76173
820 1 -1.1104 6.68293 27.8182 6.76368
941 1 -1.1104 6.62682 41.8173 6.76156
698 1 -1.1104 6.72889 27.8251 1.11515
695 1 -1.1104 6.71011 25.055 1.10671
697 1 -1.1104 6.85506 22.2356 1.09718
701 2 2.2208 10.9872 23.5827 5.13121
702 2 2.2208 10.9326 29.2808 5.32289
703 1 -1.1104 12.3249 25.0281 1.05108
704 1 -1.1104 12.1572 24.92 3.6317
705 1 -1.1104 12.3879 22.1656 1.04913
706 1 -1.1104 12.2393 27.7569 0.947768
707 2 2.2208 10.9034 26.4667 2.45484
708 1 -1.1104 12.3787 22.1815 3.77237
709 1 -1.1104 12.3622 27.8236 3.75478
710 1 -1.1104 9.42109 24.9065 0.711008
711 2 2.2208 8.1357 23.622 2.40561
712 2 2.2208 8.23972 29.2884 2.42966
713 1 -1.1104 9.47377 24.972 3.9914
714 2 2.2208 8.0979 26.484 5.18258
715 1 -1.1104 9.59558 22.0883 1.10212
716 1 -1.1104 9.552 27.6967 1.00929
717 1 -1.1104 9.52979 22.0958 3.86566
718 1 -1.1104 9.49937 27.7756 3.83588
848 1 -1.1104 12.3306 24.8031 6.52539
1011 2 2.2208 11.0152 23.4221 -0.298672
1012 2 2.2208 8.12086 26.4741 -0.310166
850 1 -1.1104 12.5236 28.0266 6.44945
852 1 -1.1104 9.37962 27.7666 6.53022
721 2 2.2208 13.5442 26.4325 5.32196
720 2 2.2208 13.7015 29.2462 2.43226
851 1 -1.1104 9.54418 22.5867 6.75372
1014 2 2.2208 2.56168 31.9494 -0.236287
723 2 2.2208 5.33827 34.8393 5.18646
724 1 -1.1104 1.18773 30.6574 1.22253
725 1 -1.1104 1.10844 36.1994 1.15492
727 1 -1.1104 1.09295 30.7996 3.94239
728 1 -1.1104 0.962035 36.4403 3.8814
730 1 -1.1104 1.08548 33.3461 1.13426
731 2 2.2208 5.31567 31.8809 2.36765
732 2 2.2208 5.23491 37.59 2.36915
733 1 -1.1104 1.00635 33.5279 4.02962
735 1 -1.1104 4.02338 30.5677 1.12226
736 1 -1.1104 3.91392 36.1205 1.01603
737 2 2.2208 2.46265 34.7271 2.48295
738 1 -1.1104 3.90757 30.6614 3.81493
739 1 -1.1104 3.87534 36.2669 3.72268
740 2 2.2208 2.5315 32.0753 5.24048
741 2 2.2208 2.49485 37.6448 5.15353
742 1 -1.1104 3.85637 33.2663 1.08921
743 1 -1.1104 3.84047 33.5156 3.8698
1013 2 2.2208 2.28698 37.5715 -0.258577
1015 2 2.2208 5.39129 34.7234 -0.318292
729 1 -1.1104 6.6194 36.3057 3.73066
734 1 -1.1104 6.59162 33.3008 3.93881
746 1 -1.1104 6.80481 30.545 0.982557
748 1 -1.1104 6.56222 33.2647 1.09167
747 1 -1.1104 6.76721 30.5129 3.79923
877 1 -1.1104 4.06232 33.2848 6.65027
876 1 -1.1104 3.94803 36.2377 6.52156
870 1 -1.1104 1.09357 36.2026 6.53938
694 2 2.2208 10.9242 40.4006 10.7188
872 1 -1.1104 6.65093 36.35 6.50296
726 1 -1.1104 6.74801 36.0253 1.0484
749 2 2.2208 10.9622 34.8713 5.1987
750 1 -1.1104 12.2727 30.5468 1.13029
751 1 -1.1104 12.4352 36.2251 1.0047
752 1 -1.1104 12.3667 30.5445 3.77576