ITEM: TIMESTEP
10000
ITEM: NUMBER OF ATOMS
17820
ITEM: BOX BOUNDS pp pp pp
-3.6618922776034468e-01 2.7706189227760184e+01
-4.3892514693417670e+00 3.3246925146933933e+02
-3.7279306065743106e-01 2.7712793060657390e+01
ITEM: ATOMS id type q x y z
1 2 2.2208 5.31899 1.21379 5.13759
2 1 -1.1104 1.01671 -3.14238 0.962639
3 1 -1.1104 0.985301 2.79706 0.852302
6 1 -1.1104 1.23669 -2.87407 3.83542
7 1 -1.1104 0.9039 2.56801 3.70494
10 1 -1.1104 0.840096 -0.110094 0.942225
12 2 2.2208 5.22926 -1.57222 2.34019
13 2 2.2208 5.1298 4.02746 2.33721
14 1 -1.1104 1.09696 -0.137517 3.71362
16 1 -1.1104 3.84032 -2.92405 1.12571
17 1 -1.1104 3.85781 2.75632 0.841669
18 2 2.2208 2.36644 1.30311 2.27513
19 1 -1.1104 3.90061 -2.98665 3.77343
20 1 -1.1104 3.79751 2.60908 3.68091
21 2 2.2208 2.39776 -1.37482 5.21393
22 2 2.2208 2.39923 4.04958 5.07321
23 1 -1.1104 3.70923 -0.00308222 1.00609
24 1 -1.1104 3.81156 -0.115374 3.73291
8441 2 2.2208 5.238 -4.18541 5.25844
8440 2 2.2208 2.42316 -4.35563 2.39712
167 1 -1.1104 0.956193 2.63168 6.49531
8449 2 2.2208 10.7194 -4.28342 10.9085
4 1 -1.1104 6.72287 -2.84701 1.0059
8 1 -1.1104 6.72356 -2.99146 3.61792
49 2 2.2208 13.703 1.05579 2.35414
173 1 -1.1104 3.96506 2.77028 6.36441
51 2 2.2208 13.7031 12.4927 8.11099
9 1 -1.1104 6.66581 2.6071 3.76131
327 2 2.2208 10.7818 15.2904 13.6443
82 2 2.2208 -0.433921 9.66566 2.24679
174 1 -1.1104 3.70971 -0.0921597 6.63574
170 1 -1.1104 0.994308 -0.0929502 6.5253
171 1 -1.1104 6.66003 -0.074016 6.3649
29 2 2.2208 -0.2743 12.4868 10.8336
9123 2 2.2208 13.7827 18.0669 8.00468
9058 2 2.2208 -0.372823 6.95206 10.9148
11 1 -1.1104 6.55364 -0.143556 0.811183
15 1 -1.1104 6.69598 -0.0692848 3.68634
5 1 -1.1104 6.57901 2.63112 1.01974
31 2 2.2208 10.8556 1.08142 5.1503
32 1 -1.1104 12.1547 -2.92773 0.865173
33 1 -1.1104 12.2188 2.53902 0.974777
34 1 -1.1104 12.2676 -2.96815 3.84893
35 1 -1.1104 12.3769 2.55827 3.76344
36 1 -1.1104 12.2088 -0.211346 1.00191
37 2 2.2208 10.7885 -1.7334 2.41604
38 2 2.2208 10.8292 3.96604 2.4585
39 1 -1.1104 12.4205 -0.249356 3.92916
40 1 -1.1104 9.43765 -3.04539 1.05386
41 1 -1.1104 9.32658 2.65234 0.981355
42 2 2.2208 7.95961 1.25281 2.31656
43 1 -1.1104 9.50453 -3.03717 3.93221
44 1 -1.1104 9.37939 2.63878 3.84768
45 2 2.2208 8.06071 -1.57676 5.14585
46 2 2.2208 8.00072 4.03596 5.14565
47 1 -1.1104 9.426 -0.220076 1.12073
48 1 -1.1104 9.57811 -0.323644 3.78507
408 2 2.2208 13.5915 12.5391 13.5979
539 2 2.2208 10.8483 20.9377 13.7722
199 2 2.2208 -0.337668 4.07371 7.91822
210 1 -1.1104 9.2881 -0.154817 6.65994
208 1 -1.1104 9.31973 -2.97475 6.58899
318 2 2.2208 5.20309 -1.42704 13.5303
8442 2 2.2208 -0.294031 -4.43443 5.19176
8443 2 2.2208 8.08175 -4.35412 2.47984
168 1 -1.1104 6.62939 -2.92057 6.59058
206 1 -1.1104 12.1988 2.51791 6.65749
209 1 -1.1104 9.3885 2.73036 6.43611
205 1 -1.1104 12.2272 -2.88461 6.70816
50 2 2.2208 13.7576 -1.62625 5.30031
54 2 2.2208 5.12898 6.83081 5.05464
55 2 2.2208 5.17898 12.3132 5.16322
56 1 -1.1104 1.05661 8.29765 1.01606
58 1 -1.1104 1.03563 8.161 3.66348
60 1 -1.1104 0.960568 5.49041 0.907184
61 1 -1.1104 0.993437 11.1332 0.925847
66 2 2.2208 5.17899 9.7135 2.25166
67 1 -1.1104 0.927578 5.44587 3.61312
68 1 -1.1104 0.924352 11.0755 3.69062
71 1 -1.1104 3.79555 8.26166 0.845324
72 2 2.2208 2.44658 6.89795 2.27442
73 2 2.2208 2.31621 12.5711 2.34083
74 1 -1.1104 3.82165 8.18148 3.58565
75 2 2.2208 2.35906 9.66862 5.18358
76 1 -1.1104 3.76311 5.51267 0.929899
77 1 -1.1104 3.67101 11.0536 1.07623
79 1 -1.1104 3.69321 5.36381 3.69474
80 1 -1.1104 3.8394 11.0272 3.81615
230 2 2.2208 13.6076 -1.56179 10.8302
238 1 -1.1104 3.82079 8.29664 6.32263
69 1 -1.1104 6.51457 5.51146 3.71573
59 1 -1.1104 6.46039 8.3669 3.81551
65 1 -1.1104 6.65291 11.0632 6.54937
234 1 -1.1104 0.987009 8.22849 6.55351
236 1 -1.1104 0.878342 5.43709 6.5482
78 1 -1.1104 3.83576 11.2588 6.67385
235 1 -1.1104 6.63877 8.31022 6.56475
8862 2 2.2208 13.7092 17.9489 2.47608
70 1 -1.1104 6.77001 11.0591 3.63553
64 1 -1.1104 6.55506 11.0645 1.03124
57 1 -1.1104 6.66123 8.26266 1.0295
9122 2 2.2208 -0.498625 1.24737 5.24669
316 2 2.2208 8.15893 20.8638 10.8849
63 1 -1.1104 6.68695 5.34853 0.950008
84 2 2.2208 10.8548 6.89066 5.3312
85 2 2.2208 10.9354 12.3941 5.18688
86 1 -1.1104 12.1625 8.39191 0.888516
87 1 -1.1104 12.1217 8.19435 3.76489
88 1 -1.1104 12.336 5.37086 1.09435
89 1 -1.1104 12.186 11.1152 1.09764
91 2 2.2208 10.7384 9.656 2.46967
92 1 -1.1104 12.4613 5.36291 3.74827
93 1 -1.1104 12.3419 11.0048 3.91466
94 1 -1.1104 9.41393 8.27076 1.08734
95 2 2.2208 8.05133 6.8805 2.57391
96 2 2.2208 8.01411 12.4312 2.43793
97 1 -1.1104 9.45558 8.07175 3.90223
98 2 2.2208 7.96451 9.63948 5.30559
99 1 -1.1104 9.42263 5.45135 0.98305
100 1 -1.1104 9.43474 11.0314 1.06099
102 1 -1.1104 9.50437 5.40179 3.80364
103 1 -1.1104 9.4486 11.0091 3.82927
90 1 -1.1104 12.2598 11.0365 6.76823
237 1 -1.1104 6.76902 5.47405 6.4993
266 1 -1.1104 12.2105 5.44827 6.53311
101 1 -1.1104 9.34968 10.9719 6.53705
8909 2 2.2208 13.489 20.7771 5.27795
106 2 2.2208 5.24327 18.0344 5.17858
107 1 -1.1104 0.871178 13.8852 0.985075
109 1 -1.1104 1.27527 19.2385 0.92127
113 1 -1.1104 0.954238 13.8888 3.86239
114 1 -1.1104 1.04376 19.5772 3.55586
116 1 -1.1104 0.950719 16.684 0.976916
119 2 2.2208 5.23547 15.3577 2.42738
120 2 2.2208 5.12416 20.9877 2.50084
121 1 -1.1104 1.06082 16.5818 3.69759
123 1 -1.1104 3.80655 13.7994 1.04786
125 1 -1.1104 4.04219 19.4714 0.953748
127 2 2.2208 2.46508 18.0622 2.35939
128 1 -1.1104 3.87197 13.901 3.81277
129 1 -1.1104 3.83504 19.5629 3.83013
130 2 2.2208 2.42768 15.2795 5.19562
131 2 2.2208 2.27645 20.8967 5.11471
132 1 -1.1104 3.82336 16.6779 0.923684
134 1 -1.1104 3.78984 16.6768 3.86998
126 1 -1.1104 3.75656 19.3126 6.59375
122 1 -1.1104 6.597 16.7036 3.78857
112 1 -1.1104 6.53629 19.5097 6.54557
118 1 -1.1104 6.79364 16.6783 6.54266
108 1 -1.1104 1.01495 13.7923 6.63588
115 1 -1.1104 6.57561 13.7544 3.86553
138 1 -1.1104 6.72167 19.5795 0.948845
110 1 -1.1104 6.54128 13.8431 1.12051
140 1 -1.1104 6.52194 16.5624 1.00476
139 1 -1.1104 6.51372 19.5577 3.70585
141 2 2.2208 10.8595 17.9385 5.1171
142 1 -1.1104 12.1192 13.9162 0.894533
144 1 -1.1104 12.2221 19.339 1.07488
146 1 -1.1104 12.2935 13.7513 3.76992
147 1 -1.1104 12.2198 19.286 3.84806
148 1 -1.1104 12.3449 16.5944 1.20007
150 2 2.2208 10.6907 15.339 2.25039
151 2 2.2208 10.7889 20.8229 2.42731
152 1 -1.1104 12.0447 16.5511 3.82275
153 1 -1.1104 9.37458 13.9139 0.938583
155 1 -1.1104 9.34304 19.3319 0.842198
157 2 2.2208 7.97568 18.0994 2.32707
158 1 -1.1104 9.48088 13.9062 3.71725
159 1 -1.1104 9.28703 19.4402 3.88022
160 2 2.2208 8.08197 15.1829 5.1936
161 2 2.2208 7.90715 20.944 5.21827
162 1 -1.1104 9.3978 16.6502 0.921258
164 1 -1.1104 9.31178 16.6768 3.76845
156 1 -1.1104 9.3913 19.6182 6.60574
154 1 -1.1104 9.46495 13.7874 6.50682
149 1 -1.1104 12.2976 16.713 6.66331
145 1 -1.1104 12.2679 19.375 6.66788
143 1 -1.1104 12.3134 13.7539 6.52938
8447 2 2.2208 5.21887 -4.31468 10.8649
8446 2 2.2208 2.43573 -4.33368 8.02876
201 2 2.2208 -0.390101 1.15004 10.5345
166 1 -1.1104 1.10845 -3.09499 6.55751
172 1 -1.1104 3.88032 -2.8989 6.63714
175 2 2.2208 5.21183 1.34451 10.7288
176 1 -1.1104 1.16355 -2.99782 12.2011
177 1 -1.1104 1.0908 2.40538 11.9661
180 1 -1.1104 0.964851 -2.93259 9.3953
181 1 -1.1104 0.926802 2.60022 9.21326
184 1 -1.1104 0.849892 -0.329864 12.1519
186 2 2.2208 5.29317 -1.58185 7.97382
187 2 2.2208 5.32505 4.06858 7.84893
188 1 -1.1104 1.04808 -0.213456 9.34007
190 1 -1.1104 3.89771 -2.80029 12.0751
191 1 -1.1104 3.92014 2.55108 12.1038
192 2 2.2208 2.37785 1.21171 7.96944
193 1 -1.1104 3.75543 -2.87012 9.38782
194 1 -1.1104 3.78392 2.68689 9.27578
195 2 2.2208 2.49339 -1.5179 10.8703
197 1 -1.1104 3.65796 0.0183349 12.2168
198 1 -1.1104 4.00777 -0.077083 9.38969
196 2 2.2208 2.38498 3.92572 10.785
183 1 -1.1104 6.57334 2.72014 9.38937
179 1 -1.1104 6.76314 2.77081 12.1435
189 1 -1.1104 6.79436 -0.0944048 9.3297
321 2 2.2208 8.09424 1.2379 13.4299
320 2 2.2208 5.26523 4.09077 13.633
8460 2 2.2208 7.99304 -4.45465 13.5927
8448 2 2.2208 8.07547 -4.41255 7.96166
169 1 -1.1104 6.5558 2.73282 6.52207
381 2 2.2208 -0.431824 -1.60151 13.5797
207 1 -1.1104 12.1815 -0.251287 6.66971
185 1 -1.1104 6.57612 -0.0405415 12.1225
178 1 -1.1104 6.6897 -2.81716 12.2744
182 1 -1.1104 6.58013 -3.05388 9.33305
211 2 2.2208 10.8872 1.41259 10.7627
212 1 -1.1104 12.258 -2.95071 12.3193
213 1 -1.1104 12.3246 2.77974 12.2416
214 1 -1.1104 12.2029 -2.79483 9.58294
215 1 -1.1104 12.3 2.55596 9.26375
216 1 -1.1104 12.1509 0.0617448 12.2329
217 2 2.2208 10.7473 -1.51844 7.98511
218 2 2.2208 10.8241 3.95543 7.84337
219 1 -1.1104 12.4742 -0.0695697 9.538
220 1 -1.1104 9.3826 -3.0049 12.3683
221 1 -1.1104 9.53127 2.7145 12.1238
222 2 2.2208 7.97082 1.41337 7.94478
223 1 -1.1104 9.35004 -2.86717 9.53712
224 1 -1.1104 9.52376 2.60305 9.25126
225 2 2.2208 7.98768 -1.5307 10.7781
226 2 2.2208 7.98734 4.0794 10.7628
227 1 -1.1104 9.41317 -0.166514 12.2743
228 1 -1.1104 9.51553 -0.0433978 9.48565
165 2 2.2208 10.8325 20.7909 8.0417
315 1 -1.1104 9.44765 16.6402 12.2096
322 2 2.2208 10.9398 4.11161 13.5078
62 1 -1.1104 0.947412 11.0214 6.70847
239 1 -1.1104 3.8713 5.50008 6.52352
240 2 2.2208 5.23262 6.89215 10.78
241 2 2.2208 5.25926 12.4756 10.8402
242 1 -1.1104 1.01162 8.39465 12.2428
244 1 -1.1104 0.901629 8.25693 9.5258
246 1 -1.1104 1.404 5.65196 11.9876
247 1 -1.1104 1.02507 11.2545 12.2757
250 2 2.2208 5.14522 9.69422 7.94805
251 1 -1.1104 0.819559 5.48407 9.25317
252 1 -1.1104 1.00831 11.033 9.48141
255 1 -1.1104 3.90615 8.2643 12.0652
256 2 2.2208 2.28535 6.86853 7.94415
257 2 2.2208 2.49002 12.5144 7.94809
258 1 -1.1104 3.73278 8.21992 9.14478
259 2 2.2208 2.40208 9.67831 10.9324
260 1 -1.1104 4.04344 5.45175 12.2615
261 1 -1.1104 3.93447 11.0438 12.3948
262 1 -1.1104 3.71143 5.54598 9.50221
263 1 -1.1104 3.8736 11.157 9.49756
253 1 -1.1104 6.69883 5.43941 9.47824
25 2 2.2208 13.6033 15.3671 10.8213
243 1 -1.1104 6.6399 8.55797 12.2659
245 1 -1.1104 6.61601 8.22525 9.41423
28 2 2.2208 -0.526651 9.68545 8.1161
324 2 2.2208 5.15042 9.68753 13.7048
323 2 2.2208 2.50687 6.81903 13.5807
267 1 -1.1104 9.46168 8.25376 6.67028
269 1 -1.1104 9.3891 5.43895 6.64016
9388 2 2.2208 13.6194 20.8698 -0.43615
265 1 -1.1104 12.2704 8.28488 6.61768
249 1 -1.1104 6.83647 11.1878 12.2748
254 1 -1.1104 6.55085 11.0655 9.56271
248 1 -1.1104 6.80799 5.60596 12.1951
264 1 -1.1104 9.36422 11.2197 9.45683
268 1 -1.1104 9.47908 5.39944 9.25527
270 1 -1.1104 9.56347 11.1492 12.1879
271 1 -1.1104 9.72461 5.54169 12.1611
272 2 2.2208 7.93235 9.78022 10.8316
273 1 -1.1104 9.55483 8.23678 9.45565
274 2 2.2208 7.98086 12.397 8.00879
275 2 2.2208 8.1063 6.85405 8.07081
276 2 2.2208 10.9928 6.92139 10.7347
277 2 2.2208 10.8698 12.5084 10.9311
278 1 -1.1104 12.2167 8.27812 12.05
279 1 -1.1104 12.2943 8.36648 9.35063
280 1 -1.1104 12.3581 5.41052 12.0782
281 1 -1.1104 12.201 11.1308 12.2507
282 2 2.2208 10.8003 9.68194 8.11077
283 1 -1.1104 12.2616 5.36781 9.35353
284 1 -1.1104 12.2982 11.165 9.48321
285 1 -1.1104 9.41688 8.41606 12.1397
53 2 2.2208 13.5495 9.62555 5.23977
317 2 2.2208 8.01474 15.3053 10.9085
319 2 2.2208 2.39068 1.37032 13.6353
117 1 -1.1104 1.09643 16.6594 6.47197
124 1 -1.1104 3.97384 13.9857 6.55304
302 1 -1.1104 0.837522 19.506 6.55308
133 1 -1.1104 3.97302 16.6943 6.73111
233 1 -1.1104 9.52473 19.5554 9.48782
312 2 2.2208 -0.428744 17.9965 10.7508
203 1 -1.1104 9.28379 19.5161 12.2911
286 1 -1.1104 3.97334 19.4585 12.3036
287 1 -1.1104 3.91161 13.915 12.1559
291 1 -1.1104 0.970275 19.5248 9.46625
292 1 -1.1104 1.14753 16.7485 9.23615
293 2 2.2208 5.23394 20.8327 7.99419
294 1 -1.1104 1.01586 13.7986 9.43682
295 2 2.2208 5.2669 15.2154 8.04659
298 1 -1.1104 1.08302 19.4338 12.2378
299 1 -1.1104 1.10671 13.9567 12.4038
300 2 2.2208 5.19852 18.1216 10.8048
301 1 -1.1104 3.88993 19.6979 9.46484
303 2 2.2208 2.45138 18.1792 8.0367
304 1 -1.1104 3.80861 16.9482 9.38495
305 1 -1.1104 3.75676 14.0142 9.4215
307 1 -1.1104 0.880895 16.6836 12.1205
308 1 -1.1104 3.79073 16.6108 12.2375
309 2 2.2208 2.40203 20.7447 10.8701
310 2 2.2208 2.39622 15.2029 10.8759
231 2 2.2208 8.04161 18.0028 7.98739
296 1 -1.1104 6.7301 19.5131 12.4281
514 2 2.2208 5.217 20.9114 13.633
290 1 -1.1104 6.57044 13.93 9.35448
297 1 -1.1104 6.55791 14.0631 12.3244
306 1 -1.1104 6.66351 16.8453 12.2859
414 2 2.2208 10.8357 -1.51093 13.7702
513 2 2.2208 2.3928 18.0693 13.5603
232 1 -1.1104 9.37548 13.973 9.4258
311 1 -1.1104 12.276 16.6816 9.3646
163 1 -1.1104 9.51314 16.6456 6.53157
314 1 -1.1104 9.4328 16.7857 9.25817
135 1 -1.1104 12.509 19.4629 9.4787
111 1 -1.1104 6.58295 13.8069 6.61304
288 1 -1.1104 6.65206 19.4353 9.40677
105 1 -1.1104 12.2684 13.7779 9.4929
137 2 2.2208 10.8565 15.2306 7.99799
104 1 -1.1104 12.1923 19.6164 12.222
27 1 -1.1104 12.2205 13.9606 12.1375
26 2 2.2208 10.8908 18.1281 10.7778
136 1 -1.1104 12.0467 16.8069 12.2425
289 1 -1.1104 6.5676 16.6095 9.29832
202 1 -1.1104 9.41632 13.9665 12.3584
229 2 2.2208 13.7409 1.3049 8.06089
8445 2 2.2208 13.558 -4.33118 2.4856
9121 2 2.2208 -0.330602 -1.55388 2.33518
326 2 2.2208 8.077 6.85549 13.4738
336 2 2.2208 8.09365 4.11318 -0.41412
8457 2 2.2208 5.28377 -4.28034 -0.238015
657 2 2.2208 10.8864 6.93693 -0.345116
337 2 2.2208 5.35362 6.8713 -0.4508
342 2 2.2208 10.6977 12.5346 -0.400084
597 2 2.2208 10.8225 1.21014 -0.366956
512 2 2.2208 5.29128 15.2692 13.6579
343 2 2.2208 5.29309 1.27341 16.2876
344 1 -1.1104 1.08035 -2.83702 17.6586
345 1 -1.1104 1.06354 2.74257 17.7636
348 1 -1.1104 1.04184 -2.95837 14.9795
350 1 -1.1104 1.04301 2.46395 15.0597
356 1 -1.1104 1.1653 -0.167474 18.0085
358 2 2.2208 5.28177 -1.55451 19.238
359 2 2.2208 5.16396 4.02102 19.1359
360 1 -1.1104 1.01095 -0.205434 15.0935
364 1 -1.1104 3.91125 -2.9887 17.856
365 1 -1.1104 3.87335 2.62756 17.6985
366 2 2.2208 2.41525 1.25615 19.2356
367 1 -1.1104 3.7894 -2.86864 14.9289
369 1 -1.1104 3.79451 2.67114 14.9507
371 2 2.2208 2.5191 -1.51063 16.4158
372 2 2.2208 2.37863 4.04908 16.2824
373 1 -1.1104 3.86796 -0.100336 17.7842
374 1 -1.1104 3.78352 -0.0590162 15.0173
379 2 2.2208 -0.152432 1.33043 16.5301
380 2 2.2208 -0.295709 -1.56373 19.2414
8608 2 2.2208 2.39107 -4.33957 19.2218
8606 2 2.2208 8.08432 -4.38033 19.2644
9385 2 2.2208 13.7892 20.7553 22.0927
352 1 -1.1104 6.50062 -2.97286 15.1608
362 1 -1.1104 6.84048 -0.0968321 14.9446
8646 2 2.2208 -0.418849 -4.42276 16.3723
368 1 -1.1104 3.76702 -2.78544 20.6721
9207 2 2.2208 13.6144 4.00699 27.6374
354 1 -1.1104 6.69291 2.68889 14.876
347 1 -1.1104 6.7178 2.61808 17.5507
357 1 -1.1104 6.61164 -0.153739 17.6667
346 1 -1.1104 6.72566 -2.90987 17.9485
386 2 2.2208 10.8803 1.25529 16.4166
387 1 -1.1104 12.2291 2.50027 17.835
388 1 -1.1104 12.1454 -2.84859 15.4451
389 1 -1.1104 12.3394 2.65167 15.0868
391 1 -1.1104 12.3452 -0.421686 17.8123
392 2 2.2208 10.7985 -1.45385 19.3057
393 2 2.2208 10.8711 4.00419 19.0596
394 1 -1.1104 12.3164 -0.241845 15.0645
396 1 -1.1104 9.89532 -2.99135 17.8601
397 1 -1.1104 9.51593 2.45445 17.7693
398 2 2.2208 7.95677 1.21654 19.0258
399 1 -1.1104 9.3502 -3.03695 15.0888
401 1 -1.1104 9.37378 2.63891 14.9244
403 2 2.2208 8.1947 -1.60304 16.4139
405 1 -1.1104 9.55144 -0.265051 17.8833
406 1 -1.1104 9.56627 -0.033742 15.0774
404 2 2.2208 8.11971 4.02748 16.3597
570 2 2.2208 13.6833 9.64295 16.5682
390 1 -1.1104 12.3993 2.72287 20.4471
9127 2 2.2208 13.6469 15.2597 27.7594
363 1 -1.1104 6.71135 -0.120322 20.3982
407 1 -1.1104 9.35619 -0.164332 20.5521
353 1 -1.1104 6.6555 -3.05807 20.6642
402 1 -1.1104 9.55789 2.54994 20.559
412 2 2.2208 7.87266 15.1173 27.7656
9282 2 2.2208 -0.321029 6.68647 16.4963
416 2 2.2208 5.35361 6.91796 16.3987
417 2 2.2208 5.3422 12.522 16.3715
418 1 -1.1104 1.11923 8.22103 17.852
420 1 -1.1104 1.18538 8.1319 14.9505
424 1 -1.1104 1.06314 5.47648 17.9188
425 1 -1.1104 0.992933 11.1153 17.8322
428 2 2.2208 5.28434 9.7226 19.1737
429 1 -1.1104 1.06877 5.49297 15.1062
431 1 -1.1104 1.01997 10.9624 14.9421
437 1 -1.1104 3.97571 8.20411 17.6974
438 2 2.2208 2.53278 6.83814 19.1158
439 2 2.2208 2.45512 12.5431 19.1474
440 1 -1.1104 3.7982 8.51677 15.0466
442 2 2.2208 2.31044 9.70843 16.46
443 1 -1.1104 3.91258 5.44718 17.725
444 1 -1.1104 3.91603 11.0849 17.836
445 1 -1.1104 4.00188 5.55786 14.8581
447 1 -1.1104 3.82486 11.2144 15.1516
435 1 -1.1104 6.59347 10.9548 15.0025
9167 2 2.2208 13.6204 17.948 24.7799
446 1 -1.1104 3.85155 5.31789 20.6411
574 1 -1.1104 9.45522 13.7841 23.5609
422 1 -1.1104 6.65614 8.07141 14.967
423 1 -1.1104 6.48735 8.1661 20.7047
448 1 -1.1104 3.75222 11.1096 20.5881
419 1 -1.1104 6.73925 8.35615 17.8931
436 1 -1.1104 6.6232 10.9078 20.6773
427 1 -1.1104 6.70895 11.0762 17.7226
426 1 -1.1104 6.78519 5.45611 17.9108
433 1 -1.1104 6.61693 5.45956 15.076
454 2 2.2208 10.8205 6.87522 16.2898
455 2 2.2208 10.8968 12.5013 16.478
456 1 -1.1104 12.1751 8.16514 17.8173
457 1 -1.1104 12.087 8.39167 14.9058
459 1 -1.1104 12.1146 5.43631 17.8217
460 1 -1.1104 12.3642 10.916 17.8429
461 2 2.2208 10.7612 9.59031 19.2607
462 1 -1.1104 12.2739 5.53917 15.1182
464 1 -1.1104 12.2285 11.181 15.0028
466 1 -1.1104 9.35586 8.28533 18.0177
467 2 2.2208 8.13721 6.73296 19.2923
468 2 2.2208 7.98948 12.3134 19.2821
469 1 -1.1104 9.36655 8.11867 15.0138
471 2 2.2208 8.04391 9.58322 16.3552
472 1 -1.1104 9.49999 5.50369 17.7515
473 1 -1.1104 9.57075 11.1797 17.7718
474 1 -1.1104 9.42204 5.40858 14.9921
476 1 -1.1104 9.37275 11.048 14.9763
8644 2 2.2208 5.26503 -4.34171 16.3752
660 2 2.2208 13.5169 12.4414 24.9288
434 1 -1.1104 6.66872 5.32969 20.6778
9310 2 2.2208 13.601 15.271 16.3731
338 2 2.2208 2.37181 9.58978 27.6193
478 2 2.2208 10.7831 15.2652 24.8841
463 1 -1.1104 12.1177 5.60899 20.5105
470 1 -1.1104 9.43508 8.1454 20.6717
475 1 -1.1104 9.48335 5.3981 20.599
458 1 -1.1104 12.2285 8.37071 20.568
465 1 -1.1104 12.1599 11.0599 20.715
479 2 2.2208 5.15579 18.0719 16.3999
480 1 -1.1104 0.872401 13.7779 17.9376
481 1 -1.1104 0.815213 19.3755 17.8666
484 1 -1.1104 0.989252 13.7148 15.151
486 1 -1.1104 0.966525 19.5117 15.1061
492 1 -1.1104 0.964127 16.4692 17.8401
494 2 2.2208 5.11933 15.3337 19.1768
495 2 2.2208 5.2501 20.9636 19.2738
496 1 -1.1104 1.138 16.6671 14.9203
500 1 -1.1104 3.75989 13.9448 17.6817
501 1 -1.1104 3.82318 19.4467 17.771
502 2 2.2208 2.27863 18.0676 19.1959
503 1 -1.1104 3.94317 13.9045 14.8656
505 1 -1.1104 3.75401 19.3609 15.0719
507 2 2.2208 2.29811 15.2729 16.4476
508 2 2.2208 2.36646 20.8899 16.5216
509 1 -1.1104 3.73987 16.7208 17.9518
510 1 -1.1104 3.79874 16.6602 15.186
485 1 -1.1104 1.11968 14.0582 20.5707
499 1 -1.1104 6.47906 16.5429 20.6543
497 1 -1.1104 0.96404 16.8697 20.6801
487 1 -1.1104 0.897025 19.5072 20.7765
511 1 -1.1104 3.75255 16.7834 20.7056
489 1 -1.1104 6.5605 13.6637 20.7231
498 1 -1.1104 6.65659 16.7396 15.1277
490 1 -1.1104 6.48955 19.6327 15.0832
504 1 -1.1104 3.8928 13.9119 20.4825
506 1 -1.1104 3.66213 19.4827 20.6034
531 1 -1.1104 9.31448 13.8651 20.7233
488 1 -1.1104 6.69868 13.8452 15.0295
493 1 -1.1104 6.62091 16.6371 17.9179
482 1 -1.1104 6.57113 13.9259 17.7675
483 1 -1.1104 6.52809 19.4923 17.887
515 2 2.2208 10.8758 18.0581 16.6253
516 1 -1.1104 12.1577 13.8278 17.7618
517 1 -1.1104 12.4236 19.5123 17.9249
518 1 -1.1104 12.352 14.0089 14.8902
520 1 -1.1104 12.1719 19.4618 15.0879
522 1 -1.1104 12.3322 16.6644 17.9494
523 2 2.2208 10.7684 15.2559 19.3785
524 2 2.2208 10.912 20.7801 19.2313
525 1 -1.1104 12.2304 16.6798 15.0691
527 1 -1.1104 9.38187 13.9471 17.9803
528 1 -1.1104 9.42893 19.3514 17.9617
529 2 2.2208 7.87418 18.1826 19.2222
530 1 -1.1104 9.49732 13.8461 15.1479
532 1 -1.1104 9.55272 19.6871 15.1784
534 2 2.2208 8.12105 15.2974 16.478
535 2 2.2208 7.91208 20.9146 16.499
536 1 -1.1104 9.40659 16.6609 17.894
537 1 -1.1104 9.512 16.7224 15.0591
491 1 -1.1104 6.61728 19.4512 20.5572
533 1 -1.1104 9.28009 19.4917 20.4806
521 1 -1.1104 12.4189 19.4094 20.6606
526 1 -1.1104 12.2028 16.6877 20.6974
519 1 -1.1104 12.2364 13.8752 20.5381
538 1 -1.1104 9.38358 16.5662 20.6498
9356 2 2.2208 13.8057 -1.45953 22.0673
9208 2 2.2208 13.5695 1.31677 24.8712
452 2 2.2208 10.9477 20.9177 24.7479
349 1 -1.1104 1.00445 -2.8543 20.6649
361 1 -1.1104 0.937365 -0.117014 20.6258
385 2 2.2208 7.97254 15.197 22.0902
607 1 -1.1104 12.0681 19.6086 26.4096
370 1 -1.1104 3.69256 2.57047 20.4931
375 1 -1.1104 3.95037 -0.205748 20.8458
351 1 -1.1104 0.965823 2.63033 20.6983
543 2 2.2208 5.30501 1.31443 21.9909
544 1 -1.1104 1.06043 -2.90442 23.4812
545 1 -1.1104 0.914882 2.55072 23.4774
548 1 -1.1104 0.897827 -2.87434 26.2404
549 1 -1.1104 0.956385 2.7479 26.3046
552 1 -1.1104 1.00281 -0.11357 23.4639
554 2 2.2208 5.11237 -1.56329 24.8258
555 2 2.2208 5.37014 3.95888 24.8265
556 1 -1.1104 0.92607 0.00406298 26.3016
558 1 -1.1104 3.74845 -2.87095 23.4588
559 1 -1.1104 3.94291 2.64683 23.3409
560 2 2.2208 2.4314 1.28485 24.931
561 1 -1.1104 3.82864 -3.02392 26.4226
562 1 -1.1104 3.9013 2.62949 26.1667
563 2 2.2208 2.40724 -1.53741 22.0041
564 2 2.2208 2.34412 4.02309 22.0043
565 1 -1.1104 3.89618 -0.0320723 23.517
566 1 -1.1104 3.81626 -0.233427 26.283
553 1 -1.1104 6.68691 0.0793945 23.4078
550 1 -1.1104 6.48116 -2.86451 26.2188
551 1 -1.1104 6.8778 2.66938 26.2476
577 2 2.2208 -0.369721 1.2749 22.0243
8499 2 2.2208 7.77195 -4.31809 25.0501
546 1 -1.1104 6.54687 -2.83446 23.4465
557 1 -1.1104 6.67531 -0.11806 26.2057
355 1 -1.1104 6.8121 2.64575 20.5673
547 1 -1.1104 6.77684 2.74992 23.4156
400 1 -1.1104 9.56951 -2.95193 20.7073
395 1 -1.1104 12.1887 -0.35319 20.553
579 2 2.2208 10.8188 1.30629 21.9369
580 1 -1.1104 12.0024 -2.83712 22.8814
581 1 -1.1104 12.2587 2.94378 23.3587
582 1 -1.1104 12.2584 -2.8761 26.1377
583 1 -1.1104 12.2283 2.7341 26.2103
584 1 -1.1104 12.358 -0.0186764 23.403
585 2 2.2208 10.9041 -1.42641 24.6966
586 2 2.2208 10.9011 4.10284 24.7342
587 1 -1.1104 12.1509 -0.281343 26.2851
588 1 -1.1104 9.3984 -2.93783 23.5459
589 1 -1.1104 9.62257 2.60168 23.3747
590 2 2.2208 8.25414 1.39586 24.7956
591 1 -1.1104 9.56524 -2.70698 26.3208
592 1 -1.1104 9.60334 2.75882 26.0617
593 2 2.2208 7.94933 -1.44735 22.0975
594 2 2.2208 8.07225 4.08124 22.0285
595 1 -1.1104 9.5264 0.00303494 23.4455
596 1 -1.1104 9.53872 0.0256052 26.2858
411 2 2.2208 13.684 15.3022 22.1103
333 2 2.2208 2.42153 4.12421 27.6659
430 1 -1.1104 1.06231 5.57789 20.5401
441 1 -1.1104 3.82098 8.29738 20.4892
432 1 -1.1104 0.9506 11.2019 20.4639
421 1 -1.1104 1.07531 8.28058 20.6831
608 2 2.2208 5.21682 6.81657 22.048
609 2 2.2208 5.20414 12.4286 21.9855
610 1 -1.1104 1.24166 8.21017 23.3748
612 1 -1.1104 1.0904 8.34425 26.2751
614 1 -1.1104 1.1384 5.4385 23.3582
615 1 -1.1104 1.10993 11.0029 23.3635
618 2 2.2208 5.11848 9.63125 24.8932
619 1 -1.1104 1.00322 5.55619 26.1057
620 1 -1.1104 0.914536 11.0151 26.343
623 1 -1.1104 4.0171 8.15976 23.3973
624 2 2.2208 2.54279 6.76194 24.7876
625 2 2.2208 2.35128 12.4755 24.8313
626 1 -1.1104 3.82441 8.1183 26.1192
627 2 2.2208 2.42666 9.74254 21.9239
628 1 -1.1104 3.96179 5.39296 23.4165
629 1 -1.1104 3.82979 11.0635 23.4506
630 1 -1.1104 3.9314 5.21266 26.1629
631 1 -1.1104 3.69845 11.0016 26.23
9312 2 2.2208 13.7032 18.0547 19.2261
604 2 2.2208 13.6752 -1.53317 27.7112
339 2 2.2208 5.03972 12.3568 27.76
377 2 2.2208 13.629 9.65804 22.0848
9373 2 2.2208 13.6331 4.11333 21.8748
617 1 -1.1104 6.52008 11.0358 23.407
622 1 -1.1104 6.5114 10.8365 26.3024
621 1 -1.1104 6.67989 5.35459 26.1961
477 1 -1.1104 9.4032 10.986 20.6645
613 1 -1.1104 6.68275 8.15968 26.2964
616 1 -1.1104 6.78968 5.54914 23.5004
611 1 -1.1104 6.62096 8.39324 23.5574
639 1 -1.1104 9.4194 11.0754 26.4892
640 1 -1.1104 9.43738 5.55913 26.2951
641 1 -1.1104 9.27562 11.1702 23.5575
642 1 -1.1104 9.47535 5.45336 23.3864
643 2 2.2208 7.98285 9.56638 22.1008
644 1 -1.1104 9.55844 8.34934 26.2553
645 2 2.2208 7.88366 12.4285 24.8697
646 2 2.2208 7.99944 6.88387 24.9403
647 2 2.2208 10.8693 6.81997 21.9706
648 2 2.2208 10.7995 12.552 22.0274
649 1 -1.1104 12.3125 8.42687 23.5028
650 1 -1.1104 12.2516 8.1597 26.2468
651 1 -1.1104 12.237 5.57186 23.1304
652 1 -1.1104 12.1255 11.0632 23.3864
653 2 2.2208 10.7887 9.77762 24.8265
654 1 -1.1104 12.0863 5.50465 26.21
655 1 -1.1104 12.1329 11.0491 26.2345
656 1 -1.1104 9.5125 8.21334 23.4007
9313 2 2.2208 13.7024 20.8436 16.5015
661 2 2.2208 13.5394 9.68404 27.6559
9168 2 2.2208 13.693 4.0649 16.4336
9174 2 2.2208 13.7517 1.35915 19.1928
573 1 -1.1104 12.1564 16.92 26.1832
567 2 2.2208 2.40722 15.3825 22.0156
568 2 2.2208 2.32001 20.8022 22.0643
569 1 -1.1104 3.74377 16.7012 23.4406
571 1 -1.1104 0.984304 16.7272 23.4185
599 1 -1.1104 3.48972 13.96 26.2281
632 1 -1.1104 3.8622 16.6845 26.2809
633 2 2.2208 2.39118 17.9763 24.8347
634 1 -1.1104 3.70064 19.439 26.2138
635 2 2.2208 5.14707 18.1397 21.9907
658 1 -1.1104 1.0025 13.7901 23.3704
659 1 -1.1104 0.944314 19.5695 23.5014
663 1 -1.1104 3.79255 19.5377 23.3511
665 1 -1.1104 3.85623 13.8823 23.3097
667 1 -1.1104 0.954514 19.6485 26.3691
668 1 -1.1104 0.881153 16.7202 26.3534
669 1 -1.1104 0.832899 13.8366 26.1775
671 2 2.2208 5.13134 20.8688 24.9867
672 2 2.2208 5.1262 15.3271 24.7596
606 1 -1.1104 12.1517 13.9711 26.2699
330 2 2.2208 5.24752 18.1097 27.7409
670 1 -1.1104 6.68621 19.5123 23.3337
575 1 -1.1104 6.68256 16.6509 23.2529
341 2 2.2208 8.04524 9.61005 27.7399
413 2 2.2208 8.01777 20.8303 21.958
601 1 -1.1104 9.56291 19.6146 23.3233
602 2 2.2208 8.04031 18.1869 24.8439
578 2 2.2208 10.8629 17.9967 21.9771
449 1 -1.1104 9.41626 16.8603 26.3223
605 1 -1.1104 12.239 19.3831 23.5074
383 1 -1.1104 9.19007 14.0312 26.2709
673 1 -1.1104 6.55482 13.8665 23.5873
329 2 2.2208 2.31348 15.3456 27.6998
638 1 -1.1104 12.1663 16.5889 23.4246
600 1 -1.1104 12.2554 13.8056 23.4395
384 1 -1.1104 9.23394 19.8476 26.0241
664 1 -1.1104 6.45873 13.6447 26.3651
666 1 -1.1104 6.6348 16.7497 26.2722
603 1 -1.1104 6.47871 19.4433 26.2824
415 1 -1.1104 9.43191 16.6294 23.5943
328 2 2.2208 5.28838 1.39609 27.624
332 2 2.2208 2.37151 -1.67764 27.7253
453 2 2.2208 10.9436 9.6869 13.4672
8534 2 2.2208 10.7812 -4.2463 27.5883
331 2 2.2208 2.46963 20.9245 27.5973
542 2 2.2208 10.7906 18.1495 27.6798
9133 2 2.2208 -0.346619 9.67845 13.5306
9383 2 2.2208 13.5686 18.1672 13.6845
598 2 2.2208 7.9984 -1.4997 27.6233
335 2 2.2208 8.01043 20.9184 27.6675
541 2 2.2208 7.95535 18.191 13.7692
451 2 2.2208 2.44679 12.5186 13.757
325 2 2.2208 8.05719 12.4431 13.7776
9355 2 2.2208 -0.296586 20.8552 13.6895
674 2 2.2208 5.27831 23.7701 5.14977
675 2 2.2208 5.21142 29.4974 5.09775
676 1 -1.1104 1.03211 25.1853 1.04909
677 1 -1.1104 0.82945 25.1096 3.83283
678 1 -1.1104 1.09268 22.1118 1.05871
679 1 -1.1104 0.878829 27.9851 0.923889
680 2 2.2208 5.17498 26.6828 2.4715
681 1 -1.1104 1.13035 22.3822 3.85232
682 1 -1.1104 1.00637 27.8116 3.83794
683 1 -1.1104 3.8008 25.2365 1.00897
684 2 2.2208 2.37962 23.7535 2.49377
685 2 2.2208 2.29175 29.359 2.42409
686 1 -1.1104 3.67131 25.1361 3.83301
687 2 2.2208 2.4461 26.493 5.20429
688 1 -1.1104 3.88561 22.2806 1.03387
689 1 -1.1104 3.79053 27.9888 1.00021
690 1 -1.1104 3.84749 22.3828 3.88058
691 1 -1.1104 3.74272 28.0022 3.82522
1009 2 2.2208 10.7427 40.4816 -0.381874
822 1 -1.1104 3.83069 22.3113 6.72388
695 1 -1.1104 6.51473 25.32 1.04921
699 1 -1.1104 6.65592 22.2951 3.79416
698 1 -1.1104 6.52513 27.9906 1.14167
700 1 -1.1104 6.6187 28.1365 3.72259
697 1 -1.1104 6.51114 22.2503 0.835512
821 1 -1.1104 4.01021 25.2311 6.56523
818 1 -1.1104 1.01328 27.7799 6.57423
817 1 -1.1104 1.03457 22.2482 6.51252
823 1 -1.1104 3.68642 28.0438 6.63679
696 1 -1.1104 6.55154 25.1925 3.79181
701 2 2.2208 10.8774 23.7225 5.04966
702 2 2.2208 10.8263 29.4097 5.26372
703 1 -1.1104 12.1263 25.1192 1.09108
704 1 -1.1104 12.1253 25.1407 3.67107
705 1 -1.1104 12.0369 22.2623 0.978346
706 1 -1.1104 12.1109 28.0541 1.12963
707 2 2.2208 10.7922 26.6754 2.47902
708 1 -1.1104 12.231 22.2712 3.85333
709 1 -1.1104 12.2192 27.9105 3.86846
710 1 -1.1104 9.23359 25.1337 0.656627
711 2 2.2208 7.96025 23.721 2.3892
712 2 2.2208 7.94531 29.4098 2.43751
713 1 -1.1104 9.44751 25.1416 3.76652
714 2 2.2208 7.97339 26.8078 5.1099
715 1 -1.1104 9.32624 22.2214 1.15107
716 1 -1.1104 9.25724 27.9768 1.1787
717 1 -1.1104 9.49726 22.2364 3.94842
718 1 -1.1104 9.37992 28.0443 3.83014
848 1 -1.1104 12.1007 24.904 6.37657
987 2 2.2208 13.4915 34.9447 8.06585
850 1 -1.1104 12.2808 28.0449 6.46833
794 2 2.2208 -0.476399 46.2694 5.26503
852 1 -1.1104 9.2203 27.9669 6.51643
851 1 -1.1104 9.4083 22.5549 6.59013
816 1 -1.1104 6.86967 25.1988 6.41834
721 2 2.2208 13.4701 26.3893 5.20138
1344 2 2.2208 2.39011 43.3761 -0.254857
9785 2 2.2208 13.63 23.5946 2.42148
723 2 2.2208 5.23023 34.9627 5.10851
724 1 -1.1104 1.05402 30.7978 0.958998
725 1 -1.1104 0.853226 36.2831 1.0661
727 1 -1.1104 0.877315 30.7413 3.79642
728 1 -1.1104 1.04594 36.4228 3.929
730 1 -1.1104 0.86341 33.5385 0.900156
731 2 2.2208 5.16113 32.0939 2.4266
732 2 2.2208 5.21926 37.8412 2.37489
733 1 -1.1104 1.03311 33.61 3.87968
735 1 -1.1104 3.67321 30.7736 0.985943
736 1 -1.1104 3.78112 36.2631 0.918537
737 2 2.2208 2.16484 35.0129 2.48239
738 1 -1.1104 3.6203 30.7075 3.79751
739 1 -1.1104 3.87843 36.323 3.69484
740 2 2.2208 2.31935 32.1312 5.15606
741 2 2.2208 2.33453 37.8322 5.1215
742 1 -1.1104 3.66256 33.5191 1.21327
743 1 -1.1104 3.97115 33.5588 3.92024
729 1 -1.1104 6.75701 36.2896 3.86582
746 1 -1.1104 6.48386 30.7345 1.02647
747 1 -1.1104 6.50029 30.9172 3.89031
870 1 -1.1104 0.795283 36.1013 6.72316
748 1 -1.1104 6.5753 33.5115 0.908828
875 1 -1.1104 3.71267 30.8635 6.63317
876 1 -1.1104 3.74097 36.3203 6.54213
877 1 -1.1104 3.76589 33.6143 6.61041
871 1 -1.1104 6.57443 30.7095 6.60078
872 1 -1.1104 6.40072 36.3165 6.54704
990 2 2.2208 13.4913 40.4429 8.0055
792 2 2.2208 -0.511765 40.5752 5.2195
998 2 2.2208 13.5928 46.2622 13.5268
979 2 2.2208 13.5873 37.7884 5.22358
874 1 -1.1104 6.62841 33.3769 6.60045
734 1 -1.1104 6.73651 33.482 3.85693
726 1 -1.1104 6.60299 36.1587 1.15011
749 2 2.2208 10.8627 34.9382 5.31115
750 1 -1.1104 12.2183 30.7047 1.00643
751 1 -1.1104 12.2309 36.3467 1.02625
752 1 -1.1104 12.1856 30.7105 3.79838
753 1 -1.1104 12.4052 36.2325 3.90386