ITEM: TIMESTEP
70000
ITEM: NUMBER OF ATOMS
17820
ITEM: BOX BOUNDS pp pp pp
-3.6483893479075769e-01 2.7704838934790832e+01
-4.3382605014767792e+00 3.3241826050147597e+02
-3.7128923588627227e-01 2.7711289235886429e+01
ITEM: ATOMS id type q x y z
1 2 2.2208 5.26208 1.27465 5.26056
2 1 -1.1104 1.27348 -2.92806 1.02953
3 1 -1.1104 1.15451 2.66291 1.0625
6 1 -1.1104 1.13363 -2.8497 3.80381
7 1 -1.1104 1.05071 2.87339 3.8796
10 1 -1.1104 1.07629 -0.15522 0.919931
12 2 2.2208 5.30893 -1.51655 2.46226
13 2 2.2208 5.42544 4.07163 2.53318
14 1 -1.1104 1.08064 0.120123 3.78779
16 1 -1.1104 4.01044 -2.80807 1.15332
17 1 -1.1104 4.05813 2.76368 1.04733
18 2 2.2208 2.6321 1.4413 2.44722
19 1 -1.1104 3.84174 -2.72934 3.79875
20 1 -1.1104 3.9284 2.84283 3.85258
21 2 2.2208 2.48391 -1.41314 5.15809
22 2 2.2208 2.60069 4.18338 5.38788
23 1 -1.1104 3.97466 -0.079106 1.1141
24 1 -1.1104 3.9645 0.00934523 3.74157
174 1 -1.1104 3.82662 -0.104527 6.57545
9121 2 2.2208 -0.180202 -1.45925 2.35912
8 1 -1.1104 6.78392 -2.96801 3.81545
8863 2 2.2208 -0.441596 18.1978 5.4206
9136 2 2.2208 -0.299673 1.27669 -0.324901
9124 2 2.2208 -0.246436 4.3005 2.46964
332 2 2.2208 2.61237 -1.38077 -0.28628
8440 2 2.2208 2.44618 -4.34236 2.36832
333 2 2.2208 2.5485 4.15029 -0.230369
4 1 -1.1104 6.82449 -2.94142 1.1207
9 1 -1.1104 6.75982 2.68645 3.99735
15 1 -1.1104 6.81365 -0.0328663 3.98996
11 1 -1.1104 6.67323 -0.161965 1.13056
5 1 -1.1104 6.81865 2.58916 1.12352
31 2 2.2208 10.935 1.30983 5.34817
32 1 -1.1104 12.4539 -2.9349 1.02137
33 1 -1.1104 12.419 2.77131 0.960594
34 1 -1.1104 12.366 -3.02391 3.90416
35 1 -1.1104 12.4228 2.64833 3.8991
36 1 -1.1104 12.23 -0.121614 1.20781
37 2 2.2208 11.0755 -1.64155 2.53674
38 2 2.2208 11.0623 4.091 2.47729
39 1 -1.1104 12.4234 -0.244091 3.98739
40 1 -1.1104 9.69909 -2.99649 1.04748
41 1 -1.1104 9.53567 2.80114 0.942208
42 2 2.2208 8.20867 1.24936 2.37683
43 1 -1.1104 9.49394 -2.96744 3.73963
44 1 -1.1104 9.56283 2.64584 3.77042
45 2 2.2208 8.07664 -1.42543 5.286
46 2 2.2208 8.14161 4.0604 5.38116
47 1 -1.1104 9.55833 -0.176674 1.05006
48 1 -1.1104 9.5787 -0.0904719 3.84357
207 1 -1.1104 12.3568 0.198146 6.76307
209 1 -1.1104 9.5336 2.79557 6.78737
171 1 -1.1104 6.78014 -0.112531 6.76196
26 2 2.2208 11.0312 18.1441 11.0697
597 2 2.2208 11.1148 1.33702 -0.380665
165 2 2.2208 11.0266 20.9473 8.34814
145 1 -1.1104 12.2743 19.4911 6.84242
54 2 2.2208 5.39056 7.0536 5.40156
55 2 2.2208 5.29441 12.5339 5.4364
56 1 -1.1104 1.17264 8.29685 1.29036
58 1 -1.1104 0.987915 8.25387 3.94356
60 1 -1.1104 1.05912 5.4188 1.07616
61 1 -1.1104 1.03079 11.1646 1.296
66 2 2.2208 5.29886 9.71169 2.53184
67 1 -1.1104 1.20159 5.60832 3.91745
68 1 -1.1104 1.17932 11.023 4.08401
71 1 -1.1104 3.86913 8.24613 1.16153
72 2 2.2208 2.65364 6.84103 2.60977
73 2 2.2208 2.41982 12.5185 2.67209
74 1 -1.1104 3.97516 8.4512 3.99502
75 2 2.2208 2.45502 9.62756 5.37821
76 1 -1.1104 4.0545 5.42738 1.23528
77 1 -1.1104 3.86855 11.1745 1.22064
79 1 -1.1104 4.13688 5.64876 4.05746
80 1 -1.1104 3.81469 11.1411 3.8353
238 1 -1.1104 3.88468 8.36086 6.78203
234 1 -1.1104 1.05764 8.22775 6.82206
82 2 2.2208 -0.311941 9.69564 2.5193
81 2 2.2208 -0.301209 6.92388 5.32155
237 1 -1.1104 6.75953 5.43288 6.81749
83 2 2.2208 -0.259019 12.4786 5.35321
339 2 2.2208 5.23591 12.6421 -0.120519
604 2 2.2208 13.7639 -1.42816 -0.240119
340 2 2.2208 -0.347195 12.576 -0.264599
64 1 -1.1104 6.65934 11.2321 1.23927
57 1 -1.1104 6.73934 8.30933 1.12535
70 1 -1.1104 6.61656 11.0621 3.93001
63 1 -1.1104 6.81828 5.44617 1.10254
235 1 -1.1104 6.7413 8.20125 6.85299
59 1 -1.1104 6.62005 8.33233 3.91225
69 1 -1.1104 6.79609 5.44218 3.90203
84 2 2.2208 10.9534 6.9876 5.33894
85 2 2.2208 10.9465 12.5144 5.34954
86 1 -1.1104 12.3373 8.30197 1.06102
87 1 -1.1104 12.2936 8.08592 3.82865
88 1 -1.1104 12.5288 5.61876 1.01574
89 1 -1.1104 12.3611 11.0667 1.19915
91 2 2.2208 10.8739 9.59394 2.55282
92 1 -1.1104 12.4108 5.35006 3.81622
93 1 -1.1104 12.3561 11.0855 3.97888
94 1 -1.1104 9.54029 8.39195 1.07089
95 2 2.2208 8.13175 6.95068 2.59933
96 2 2.2208 8.03921 12.6518 2.56471
97 1 -1.1104 9.36279 8.35465 3.92265
98 2 2.2208 7.97272 9.80622 5.34431
99 1 -1.1104 9.71458 5.62238 1.08854
100 1 -1.1104 9.47879 11.2648 1.10175
102 1 -1.1104 9.59317 5.46188 3.96608
103 1 -1.1104 9.54346 11.1506 3.89303
265 1 -1.1104 12.2861 8.55263 6.6251
118 1 -1.1104 6.76032 16.9069 6.91432
101 1 -1.1104 9.65776 11.2818 6.77657
269 1 -1.1104 9.43173 5.57811 6.8089
266 1 -1.1104 12.2965 5.66303 6.87093
106 2 2.2208 5.31822 18.3964 5.4759
107 1 -1.1104 0.969314 13.974 1.0336
109 1 -1.1104 1.05602 19.5563 1.13678
113 1 -1.1104 1.03212 14.0662 3.93121
114 1 -1.1104 1.26018 19.6887 3.79736
116 1 -1.1104 0.982418 16.8374 1.29549
119 2 2.2208 5.24506 15.4263 2.70084
120 2 2.2208 5.24047 20.9928 2.53887
121 1 -1.1104 1.08185 16.8935 4.07398
123 1 -1.1104 3.80295 14.052 1.16503
125 1 -1.1104 3.88501 19.5959 1.28591
127 2 2.2208 2.46082 18.1938 2.47315
128 1 -1.1104 3.71118 13.974 4.06215
129 1 -1.1104 3.9051 19.6267 4.01766
130 2 2.2208 2.4484 15.4679 5.35862
131 2 2.2208 2.38686 20.9747 5.34809
132 1 -1.1104 3.81369 16.7344 1.11151
134 1 -1.1104 4.0101 16.9102 3.93953
108 1 -1.1104 1.17951 13.8471 6.80334
337 2 2.2208 5.37658 7.03539 -0.273042
112 1 -1.1104 6.71908 19.8201 6.78803
104 1 -1.1104 12.4783 19.5948 12.4188
8972 2 2.2208 -0.397089 15.5308 2.52243
331 2 2.2208 2.323 20.9667 -0.301494
9125 2 2.2208 -0.362793 18.2282 -0.261117
335 2 2.2208 8.0751 21.0129 -0.290424
412 2 2.2208 7.97021 15.4444 -0.18177
122 1 -1.1104 6.71434 16.8353 4.11622
115 1 -1.1104 6.62583 14.0501 4.10228
140 1 -1.1104 6.49199 16.7213 1.18607
110 1 -1.1104 6.697 13.9742 1.13974
139 1 -1.1104 6.70865 19.7639 3.90967
138 1 -1.1104 6.66993 19.6963 1.17743
141 2 2.2208 10.8868 18.2987 5.34153
142 1 -1.1104 12.2072 13.9895 1.24322
144 1 -1.1104 12.4163 19.4512 1.16775
146 1 -1.1104 12.2911 13.9446 4.20111
147 1 -1.1104 12.3372 19.6238 3.89836
148 1 -1.1104 12.3104 16.7248 1.03995
150 2 2.2208 10.8483 15.4828 2.61127
151 2 2.2208 10.9044 20.9464 2.40876
152 1 -1.1104 12.3548 16.7568 3.98904
153 1 -1.1104 9.46447 14.0245 1.22661
155 1 -1.1104 9.53699 19.6651 1.06127
157 2 2.2208 7.92401 18.2127 2.6414
158 1 -1.1104 9.45508 14.0124 4.04995
159 1 -1.1104 9.52626 19.5515 3.89249
160 2 2.2208 8.14062 15.5067 5.4138
161 2 2.2208 8.20225 21.0038 5.37363
162 1 -1.1104 9.31505 16.8169 1.29721
164 1 -1.1104 9.42193 16.7847 4.01182
156 1 -1.1104 9.40122 19.8528 6.95131
231 2 2.2208 8.19132 18.1361 8.23854
542 2 2.2208 11.0172 18.1722 -0.146743
167 1 -1.1104 1.21492 2.78558 6.55259
166 1 -1.1104 1.09619 -2.93245 6.56272
173 1 -1.1104 3.96411 2.67814 6.79942
9058 2 2.2208 -0.279317 6.75878 10.9328
170 1 -1.1104 1.065 -0.025365 6.5139
314 1 -1.1104 9.6199 16.672 9.51375
201 2 2.2208 -0.106748 1.19243 10.7615
172 1 -1.1104 3.75528 -3.01394 6.5708
175 2 2.2208 5.33552 1.30832 10.9053
176 1 -1.1104 1.03126 -2.87807 12.2497
177 1 -1.1104 1.30201 2.52658 12.1679
180 1 -1.1104 0.97958 -2.85159 9.3925
181 1 -1.1104 0.961526 2.54166 9.2571
184 1 -1.1104 1.04225 -0.27584 12.3151
186 2 2.2208 5.3546 -1.43988 8.15033
188 1 -1.1104 1.32151 -0.117881 9.32675
190 1 -1.1104 4.00079 -2.74603 12.3179
191 1 -1.1104 3.95584 2.75232 12.2183
192 2 2.2208 2.53979 1.4341 8.06534
193 1 -1.1104 3.78949 -2.80374 9.54339
194 1 -1.1104 3.83644 2.76971 9.4637
195 2 2.2208 2.53361 -1.39507 10.962
197 1 -1.1104 3.8699 0.0751035 12.4028
198 1 -1.1104 4.04723 -0.0300944 9.45816
196 2 2.2208 2.49156 4.14572 11.0458
187 2 2.2208 5.33794 4.07777 8.00847
179 1 -1.1104 6.8834 2.72716 12.362
189 1 -1.1104 6.78551 -0.05579 9.43568
199 2 2.2208 -0.323505 4.32579 8.02757
316 2 2.2208 8.38575 21.0364 11.1388
169 1 -1.1104 6.79013 2.61827 6.66122
178 1 -1.1104 6.74235 -2.85423 12.3116
290 1 -1.1104 6.6751 13.8901 9.59124
185 1 -1.1104 6.82681 -0.0575764 12.2398
168 1 -1.1104 6.69325 -2.81494 6.61933
210 1 -1.1104 9.56639 -0.164773 6.5926
206 1 -1.1104 12.2763 2.90123 6.68751
208 1 -1.1104 9.53045 -2.99462 6.77039
183 1 -1.1104 6.64361 2.57717 9.48957
182 1 -1.1104 6.61639 -2.85835 9.51777
205 1 -1.1104 12.3443 -2.6653 6.75597
211 2 2.2208 10.9086 1.40536 11.0708
212 1 -1.1104 12.2676 -2.8108 12.5644
213 1 -1.1104 12.4571 3.01536 12.3719
214 1 -1.1104 12.2866 -2.8451 9.69558
215 1 -1.1104 12.3067 2.84507 9.52278
216 1 -1.1104 12.3109 0.117775 12.447
217 2 2.2208 10.9681 -1.51392 8.05854
218 2 2.2208 10.8695 4.1613 8.22122
219 1 -1.1104 12.5469 -0.0236147 9.59533
220 1 -1.1104 9.47872 -2.85241 12.453
221 1 -1.1104 9.63688 2.74305 12.4627
222 2 2.2208 8.15121 1.38652 8.07978
223 1 -1.1104 9.52125 -2.9294 9.50222
224 1 -1.1104 9.46575 2.7257 9.76826
225 2 2.2208 8.20334 -1.52246 10.9858
227 1 -1.1104 9.57005 -0.0551911 12.3302
228 1 -1.1104 9.66912 -0.0761296 9.31676
226 2 2.2208 8.08004 4.12128 11.0336
657 2 2.2208 10.9726 6.96835 -0.449824
28 2 2.2208 -0.321173 9.61819 8.14268
236 1 -1.1104 0.986754 5.51081 6.59799
78 1 -1.1104 3.98789 11.1276 6.64434
29 2 2.2208 -0.292339 12.5753 11.0339
62 1 -1.1104 1.03146 11.1338 6.79615
239 1 -1.1104 3.98448 5.42209 6.75532
240 2 2.2208 5.33997 6.88289 10.9664
241 2 2.2208 5.30882 12.579 11.0779
242 1 -1.1104 1.18394 8.4658 12.3239
244 1 -1.1104 1.06979 8.20174 9.52301
246 1 -1.1104 1.34573 5.71447 12.0909
247 1 -1.1104 1.15153 11.1408 12.3903
250 2 2.2208 5.28479 9.754 8.20161
251 1 -1.1104 1.20562 5.334 9.39873
252 1 -1.1104 1.15607 11.0959 9.58672
255 1 -1.1104 4.06036 8.3894 12.2923
256 2 2.2208 2.50005 6.92324 8.22131
257 2 2.2208 2.52123 12.6049 8.23812
258 1 -1.1104 3.76439 8.32018 9.57791
259 2 2.2208 2.48504 9.70925 10.9909
260 1 -1.1104 3.92511 5.4684 12.4623
261 1 -1.1104 3.9973 11.245 12.4528
262 1 -1.1104 3.93405 5.62053 9.54094
263 1 -1.1104 3.95946 11.0319 9.58241
245 1 -1.1104 6.66128 8.35062 9.72261
296 1 -1.1104 6.92843 19.672 12.4695
289 1 -1.1104 6.78062 16.7798 9.62184
315 1 -1.1104 9.58799 16.8755 12.387
65 1 -1.1104 6.82755 11.1353 6.67181
90 1 -1.1104 12.3586 11.1831 6.81134
267 1 -1.1104 9.57535 8.36728 6.8187
254 1 -1.1104 6.65967 11.0822 9.57874
249 1 -1.1104 6.81298 11.2106 12.3784
253 1 -1.1104 6.71617 5.49633 9.68755
243 1 -1.1104 6.85231 8.24706 12.293
248 1 -1.1104 6.79046 5.39934 12.3368
264 1 -1.1104 9.35766 11.101 9.67526
268 1 -1.1104 9.56075 5.42318 9.62555
270 1 -1.1104 9.50439 11.2252 12.3579
271 1 -1.1104 9.57096 5.49641 12.3661
272 2 2.2208 8.05845 9.69677 11.0511
273 1 -1.1104 9.51102 8.34407 9.52639
274 2 2.2208 8.14424 12.447 8.25231
275 2 2.2208 8.11558 6.77294 8.27274
276 2 2.2208 10.8521 6.94107 11.0028
277 2 2.2208 10.9829 12.6317 11.013
278 1 -1.1104 12.3759 8.43533 12.4479
279 1 -1.1104 12.2751 8.25976 9.49734
280 1 -1.1104 12.472 5.75595 12.2605
281 1 -1.1104 12.3218 11.1129 12.4474
282 2 2.2208 10.889 9.71501 8.22994
283 1 -1.1104 12.4241 5.64564 9.57626
284 1 -1.1104 12.285 11.1522 9.59951
285 1 -1.1104 9.52012 8.33749 12.317
124 1 -1.1104 3.83597 14.0496 6.83606
117 1 -1.1104 0.937874 16.7318 6.75892
126 1 -1.1104 3.9715 19.6805 7.02935
8835 2 2.2208 -0.291909 21.1009 8.25127
312 2 2.2208 -0.321905 18.321 10.96
306 1 -1.1104 6.84163 16.8451 12.4996
302 1 -1.1104 1.16597 19.6011 6.6604
133 1 -1.1104 3.88539 16.8635 6.8623
286 1 -1.1104 4.06232 19.7202 12.5812
287 1 -1.1104 3.96308 14.0355 12.4466
291 1 -1.1104 1.07153 19.6207 9.66053
292 1 -1.1104 1.19409 16.804 9.5465
293 2 2.2208 5.33089 20.9642 8.32853
294 1 -1.1104 1.12924 14.0622 9.62151
295 2 2.2208 5.34283 15.4317 8.25567
298 1 -1.1104 1.19414 19.6687 12.4161
299 1 -1.1104 1.30755 14.0476 12.43
300 2 2.2208 5.31528 18.1966 11.0079
301 1 -1.1104 3.87967 19.6997 9.6956
303 2 2.2208 2.43902 18.1533 8.13923
304 1 -1.1104 3.92412 16.7828 9.61676
305 1 -1.1104 3.84872 13.9424 9.7042
307 1 -1.1104 1.12063 16.9095 12.3879
308 1 -1.1104 3.94555 16.7986 12.4288
309 2 2.2208 2.53892 21.19 11.0768
310 2 2.2208 2.49147 15.4228 11.0285
313 2 2.2208 -0.225438 15.2247 8.24201
288 1 -1.1104 6.84731 19.593 9.58327
233 1 -1.1104 9.64207 19.5694 9.71683
297 1 -1.1104 6.67428 13.9125 12.4793
136 1 -1.1104 12.4024 16.7342 12.5432
111 1 -1.1104 6.56667 13.9892 6.88639
232 1 -1.1104 9.45854 13.9278 9.61965
143 1 -1.1104 12.2667 13.9807 7.00644
163 1 -1.1104 9.56537 16.8275 6.63879
149 1 -1.1104 12.1858 16.7949 6.80351
154 1 -1.1104 9.37229 14.0752 6.86325
137 2 2.2208 10.9339 15.3437 8.17007
135 1 -1.1104 12.573 19.5345 9.71123
317 2 2.2208 8.06225 15.3646 11.2324
202 1 -1.1104 9.51993 14.0025 12.4806
105 1 -1.1104 12.3216 14.0364 9.76227
203 1 -1.1104 9.76769 19.5697 12.4648
311 1 -1.1104 12.3058 16.7818 9.70978
27 1 -1.1104 12.3587 14.0158 12.5255
200 2 2.2208 -0.247019 -1.53849 8.00374
336 2 2.2208 8.16178 4.16567 -0.37516
319 2 2.2208 2.51471 1.4957 13.7637
9122 2 2.2208 -0.337478 1.33606 5.31323
330 2 2.2208 5.23528 18.2089 -0.104315
341 2 2.2208 8.23382 9.81319 -0.322823
342 2 2.2208 10.7905 12.5454 -0.179353
381 2 2.2208 -0.258763 -1.45725 13.7689
9130 2 2.2208 -0.232206 6.9624 -0.226736
321 2 2.2208 8.13263 1.31071 13.6702
343 2 2.2208 5.34741 1.40126 16.471
344 1 -1.1104 1.26882 -2.70515 17.9309
345 1 -1.1104 1.17889 2.75496 18.0689
348 1 -1.1104 1.2303 -2.83126 15.291
350 1 -1.1104 1.23848 2.75098 15.2438
356 1 -1.1104 1.4098 0.00943168 17.961
358 2 2.2208 5.33794 -1.4923 19.363
359 2 2.2208 5.37281 4.23488 19.3595
360 1 -1.1104 1.14457 -0.0682052 15.3032
364 1 -1.1104 4.04392 -2.86545 18.0155
365 1 -1.1104 4.0031 2.63429 18.0742
366 2 2.2208 2.67382 1.37702 19.433
367 1 -1.1104 3.99251 -2.65616 15.0605
369 1 -1.1104 4.04069 2.72282 15.0784
371 2 2.2208 2.62408 -1.35591 16.5129
373 1 -1.1104 4.16452 -0.040582 18.017
374 1 -1.1104 3.90859 -0.000171591 15.2085
372 2 2.2208 2.58556 4.19048 16.5113
375 1 -1.1104 4.08889 0.0467015 20.7424
370 1 -1.1104 3.9398 2.70181 20.916
363 1 -1.1104 6.83804 -0.185263 20.6665
368 1 -1.1104 4.07686 -2.8533 20.8821
320 2 2.2208 5.42069 4.1297 13.7775
379 2 2.2208 -0.0352435 1.37781 16.6066
352 1 -1.1104 6.80207 -2.77526 15.1149
541 2 2.2208 8.10341 18.1688 13.9299
8646 2 2.2208 -0.198006 -4.18542 16.6197
572 2 2.2208 -0.277175 4.14299 19.3626
380 2 2.2208 -0.195458 -1.29375 19.2663
449 1 -1.1104 9.53996 16.844 26.6155
347 1 -1.1104 6.75456 2.71373 17.9817
354 1 -1.1104 6.89159 2.83836 15.3046
362 1 -1.1104 6.80493 0.0477588 15.0516
346 1 -1.1104 7.02745 -2.93971 17.8058
357 1 -1.1104 6.73922 -0.188001 18.0623
386 2 2.2208 11.0174 1.31115 16.5783
387 1 -1.1104 12.4559 2.65419 17.8262
388 1 -1.1104 12.1418 -2.8443 15.5046
389 1 -1.1104 12.4391 2.65795 15.189
391 1 -1.1104 12.3356 -0.344529 18.0642
392 2 2.2208 10.8293 -1.38786 19.3666
393 2 2.2208 11.0822 4.09816 19.2803
394 1 -1.1104 12.4407 -0.0737852 15.1727
396 1 -1.1104 9.96526 -3.03963 18.148
397 1 -1.1104 9.5765 2.66813 17.938
398 2 2.2208 8.10417 1.46261 19.3457
399 1 -1.1104 9.56456 -2.93443 15.3275
401 1 -1.1104 9.5802 2.85494 15.2253
403 2 2.2208 8.21031 -1.47131 16.5607
405 1 -1.1104 9.4902 -0.109419 17.9221
406 1 -1.1104 9.63838 -0.133317 15.1769
404 2 2.2208 8.1622 4.10962 16.5325
570 2 2.2208 13.7531 9.80182 16.532
416 2 2.2208 5.40496 6.95457 16.4633
417 2 2.2208 5.35159 12.5091 16.669
418 1 -1.1104 1.16815 8.35919 18.0432
420 1 -1.1104 1.1496 8.39758 15.2471
424 1 -1.1104 1.21933 5.52138 17.9666
425 1 -1.1104 1.26143 11.2717 18.1558
428 2 2.2208 5.44942 9.72474 19.2736
429 1 -1.1104 1.4908 5.85696 15.4467
431 1 -1.1104 1.26347 11.0994 15.2713
437 1 -1.1104 3.85589 8.37493 18.0524
438 2 2.2208 2.56667 6.92873 19.3525
439 2 2.2208 2.68157 12.5343 19.4877
440 1 -1.1104 3.99528 8.34552 15.0535
442 2 2.2208 2.66166 9.72571 16.5988
443 1 -1.1104 4.0076 5.41186 17.915
444 1 -1.1104 4.05665 11.2 17.9102
445 1 -1.1104 4.10271 5.51672 15.2391
447 1 -1.1104 4.07725 11.1884 15.2262
426 1 -1.1104 6.92967 5.53627 17.9014
422 1 -1.1104 6.87067 8.29396 15.3047
435 1 -1.1104 6.83858 11.0585 15.1806
9282 2 2.2208 -0.131684 6.96467 16.6283
378 2 2.2208 -0.0688675 9.80467 19.4055
448 1 -1.1104 4.14733 11.2096 20.8837
441 1 -1.1104 4.04696 8.37729 20.7597
382 2 2.2208 -0.111134 12.5785 16.7284
323 2 2.2208 2.61309 6.9801 13.7148
573 1 -1.1104 12.2964 16.882 26.5703
419 1 -1.1104 6.83028 8.241 18.0737
427 1 -1.1104 6.95546 11.2333 18.0074
433 1 -1.1104 6.88024 5.68115 15.1397
454 2 2.2208 10.9004 6.86924 16.5579
455 2 2.2208 10.8867 12.4692 16.6273
456 1 -1.1104 12.337 8.3326 17.8322
457 1 -1.1104 12.4983 8.29466 15.1751
459 1 -1.1104 12.5092 5.59023 18.0296
460 1 -1.1104 12.3341 11.091 17.9674
461 2 2.2208 10.9766 9.72167 19.4774
462 1 -1.1104 12.2735 5.61315 15.0158
464 1 -1.1104 12.3019 11.0584 15.2687
466 1 -1.1104 9.55746 8.392 17.9994
467 2 2.2208 8.23236 6.87167 19.4643
468 2 2.2208 8.17641 12.5345 19.519
469 1 -1.1104 9.65536 8.27438 15.1147
471 2 2.2208 8.16159 9.70551 16.5487
472 1 -1.1104 9.64135 5.41119 17.9712
473 1 -1.1104 9.68125 11.2143 18.1543
474 1 -1.1104 9.62179 5.61565 15.1878
476 1 -1.1104 9.5207 11.1759 15.2194
475 1 -1.1104 9.59003 5.59409 20.7133
463 1 -1.1104 12.4412 5.57658 20.7082
325 2 2.2208 8.16529 12.5355 13.8342
470 1 -1.1104 9.66392 8.28674 20.8478
477 1 -1.1104 9.75383 11.2491 20.8395
453 2 2.2208 10.9429 9.76275 13.8009
376 2 2.2208 -0.120305 6.95883 22.2081
514 2 2.2208 5.40443 21.1435 13.8339
479 2 2.2208 5.39012 18.1406 16.6677
480 1 -1.1104 1.11201 14.0909 17.9955
481 1 -1.1104 1.16416 19.7021 18.0532
484 1 -1.1104 1.22086 13.7757 15.3689
486 1 -1.1104 1.09458 19.5348 15.1932
492 1 -1.1104 1.1477 16.9131 18.1964
494 2 2.2208 5.39788 15.4266 19.4608
495 2 2.2208 5.43219 21.0345 19.4354
496 1 -1.1104 1.1958 16.6517 15.1626
500 1 -1.1104 3.99004 13.9347 18.0693
501 1 -1.1104 3.96219 19.7173 18.0252
502 2 2.2208 2.56204 18.1815 19.5271
503 1 -1.1104 3.90668 14.0589 15.2172
505 1 -1.1104 3.91922 19.6756 15.3305
507 2 2.2208 2.54295 15.4256 16.6735
508 2 2.2208 2.56778 21.0839 16.6276
509 1 -1.1104 3.96442 16.7803 18.0524
510 1 -1.1104 4.04645 16.7764 15.3138
9355 2 2.2208 -0.207328 21.0506 13.7512
9353 2 2.2208 -0.0726083 18.0356 16.7056
9351 2 2.2208 -0.225758 20.9553 19.3625
9354 2 2.2208 -0.209886 15.4416 13.6671
513 2 2.2208 2.49602 18.281 13.7795
324 2 2.2208 5.43483 9.80206 13.7719
498 1 -1.1104 6.82808 16.8216 15.2097
482 1 -1.1104 6.64136 13.9105 18.1586
488 1 -1.1104 6.80931 13.8244 15.3126
483 1 -1.1104 6.79498 19.6487 18.0583
490 1 -1.1104 6.70591 19.582 15.2068
493 1 -1.1104 6.85591 16.7836 18.0391
515 2 2.2208 10.9334 18.208 16.601
516 1 -1.1104 12.3536 13.7366 17.9741
517 1 -1.1104 12.2361 19.5118 17.9554
518 1 -1.1104 12.2382 14.0643 15.1911
520 1 -1.1104 12.4361 19.6494 15.0982
522 1 -1.1104 12.3806 16.7158 18.1126
523 2 2.2208 11.0795 15.3198 19.3626
524 2 2.2208 10.8801 20.9907 19.3497
525 1 -1.1104 12.3083 16.8448 15.3145
527 1 -1.1104 9.58904 14.0071 18.1487
528 1 -1.1104 9.57218 19.6032 18.009
529 2 2.2208 8.21293 18.2077 19.4227
530 1 -1.1104 9.53555 13.9143 15.3813
532 1 -1.1104 9.57635 19.6485 15.2678
534 2 2.2208 8.21976 15.3866 16.8285
535 2 2.2208 8.00888 20.987 16.5233
536 1 -1.1104 9.73806 16.9298 18.0458
537 1 -1.1104 9.49105 16.6326 15.2774
526 1 -1.1104 12.3445 16.7544 20.996
489 1 -1.1104 6.77269 13.8877 20.9195
499 1 -1.1104 6.94127 16.784 20.8164
533 1 -1.1104 9.53968 19.7186 20.7223
539 2 2.2208 11.0088 20.9915 13.9253
361 1 -1.1104 1.34695 -0.118741 20.7414
349 1 -1.1104 1.1541 -2.83653 20.5709
576 2 2.2208 -0.324988 -1.60614 24.9776
351 1 -1.1104 1.13243 2.79361 20.7353
543 2 2.2208 5.47268 1.35586 22.0939
544 1 -1.1104 1.18875 -2.97857 23.4584
545 1 -1.1104 1.18602 2.86088 23.5927
548 1 -1.1104 1.22041 -2.9268 26.4263
549 1 -1.1104 1.03934 2.67255 26.3468
552 1 -1.1104 1.00272 -0.0600828 23.5698
554 2 2.2208 5.31644 -1.37377 25.0118
556 1 -1.1104 1.1473 -0.1658 26.2737
558 1 -1.1104 3.9126 -2.92087 23.5928
559 1 -1.1104 3.98411 2.73103 23.6096
560 2 2.2208 2.49556 1.36631 25.0059
561 1 -1.1104 3.93731 -2.93062 26.4242
562 1 -1.1104 3.74523 2.80088 26.3966
563 2 2.2208 2.59089 -1.42904 22.0779
564 2 2.2208 2.53497 4.1421 22.1715
565 1 -1.1104 3.8782 -0.130729 23.4838
566 1 -1.1104 3.96708 0.0477582 26.4216
555 2 2.2208 5.40536 4.02726 25.0948
550 1 -1.1104 6.72866 -2.8183 26.3035
577 2 2.2208 -0.253716 1.36058 22.1592
546 1 -1.1104 6.71013 -2.86214 23.5407
353 1 -1.1104 6.88422 -2.98233 20.7922
407 1 -1.1104 9.55749 0.0378658 20.7976
402 1 -1.1104 9.49029 2.69247 20.7806
400 1 -1.1104 9.9115 -2.73252 20.7028
395 1 -1.1104 12.4065 -0.0222657 20.6118
390 1 -1.1104 12.4506 2.66449 20.7795
355 1 -1.1104 6.72844 2.70071 20.7598
557 1 -1.1104 6.74472 -0.138333 26.3246
551 1 -1.1104 6.85454 2.63237 26.3917
553 1 -1.1104 6.7541 -0.167182 23.5342
547 1 -1.1104 6.71925 2.64317 23.5865
579 2 2.2208 10.9942 1.33705 22.0937
580 1 -1.1104 12.2231 -2.6333 22.9775
581 1 -1.1104 12.341 2.74491 23.4915
582 1 -1.1104 12.2294 -2.75061 26.2824
583 1 -1.1104 12.5196 2.87321 26.3478
584 1 -1.1104 12.3506 0.0319033 23.6902
585 2 2.2208 11.0698 -1.58449 24.9
586 2 2.2208 10.9286 4.02918 24.9308
587 1 -1.1104 12.4791 0.0159628 26.4755
588 1 -1.1104 9.50383 -2.92672 23.6503
589 1 -1.1104 9.51551 2.84852 23.6016
590 2 2.2208 8.20012 1.32599 25.0552
591 1 -1.1104 9.53843 -2.79415 26.3163
592 1 -1.1104 9.48525 2.73621 26.3143
593 2 2.2208 8.17448 -1.52091 22.1901
594 2 2.2208 8.13929 4.15043 22.2706
595 1 -1.1104 9.63832 -0.132951 23.6481
596 1 -1.1104 9.64054 -0.0977027 26.4415
9357 2 2.2208 -0.253935 4.1008 25.0298
446 1 -1.1104 3.85634 5.56065 20.8285
430 1 -1.1104 1.1625 5.48521 20.8122
636 2 2.2208 -0.271529 9.77557 24.9561
432 1 -1.1104 1.29034 11.1914 20.9177
421 1 -1.1104 1.20438 8.41048 20.8834
451 2 2.2208 2.6236 12.6115 13.7467
608 2 2.2208 5.43105 6.86949 22.1544
609 2 2.2208 5.4303 12.5111 22.1659
610 1 -1.1104 1.19051 8.50302 23.4878
612 1 -1.1104 1.14728 8.37089 26.2746
614 1 -1.1104 1.15819 5.69563 23.6325
615 1 -1.1104 1.02109 11.3022 23.7601
618 2 2.2208 5.31651 9.74912 25.0572
619 1 -1.1104 1.07246 5.68869 26.5485
620 1 -1.1104 0.989682 11.2711 26.5735
623 1 -1.1104 4.12218 8.29212 23.6257
624 2 2.2208 2.67141 6.9015 25.1232
625 2 2.2208 2.53791 12.6132 25.0681
626 1 -1.1104 3.88468 8.30551 26.5596
627 2 2.2208 2.60096 9.73588 22.2582
628 1 -1.1104 3.99894 5.48537 23.6848
629 1 -1.1104 3.9658 11.1801 23.6905
630 1 -1.1104 4.06846 5.71002 26.4565
631 1 -1.1104 3.85262 11.1812 26.496
611 1 -1.1104 6.84623 8.33004 23.6048
9133 2 2.2208 -0.166545 9.7195 13.8156
436 1 -1.1104 6.80129 11.0479 20.7547
423 1 -1.1104 6.94523 8.32296 20.8212
434 1 -1.1104 6.79421 5.51023 20.7582
465 1 -1.1104 12.4904 11.1836 20.7677
458 1 -1.1104 12.3464 8.34574 20.6728
617 1 -1.1104 6.77474 11.1006 23.7053
613 1 -1.1104 6.97068 8.17354 26.414
616 1 -1.1104 6.79338 5.52066 23.6034
621 1 -1.1104 6.83149 5.53073 26.3805
598 2 2.2208 8.24277 -1.58292 27.7754
622 1 -1.1104 6.72769 11.2273 26.5188
639 1 -1.1104 9.45627 11.1828 26.3291
640 1 -1.1104 9.71992 5.40395 26.3544
641 1 -1.1104 9.71713 11.0873 23.5663
642 1 -1.1104 9.64906 5.60697 23.5885
643 2 2.2208 8.23341 9.71114 22.2275
644 1 -1.1104 9.61855 8.41865 26.3724
645 2 2.2208 8.12776 12.5481 25.0012
646 2 2.2208 8.19685 6.88265 25.054
647 2 2.2208 11.0062 6.87386 22.1337
648 2 2.2208 11.0028 12.6429 22.1711
649 1 -1.1104 12.3336 8.37617 23.5202
650 1 -1.1104 12.5095 8.41109 26.2563
651 1 -1.1104 12.4974 5.45969 23.5157
652 1 -1.1104 12.4726 11.4021 23.6223
653 2 2.2208 10.8499 9.84048 24.9929
654 1 -1.1104 12.5048 5.49307 26.3882
655 1 -1.1104 12.3534 11.1843 26.472
656 1 -1.1104 9.49474 8.36977 23.6281
602 2 2.2208 8.15517 18.2647 25.1172
322 2 2.2208 10.9799 4.174 13.804
519 1 -1.1104 12.3491 14.0668 20.7244
9166 2 2.2208 -0.341615 20.9687 25.0408
485 1 -1.1104 1.11351 13.9438 20.7295
506 1 -1.1104 4.08925 19.8091 20.992
487 1 -1.1104 1.23676 19.5546 20.809
497 1 -1.1104 1.23614 16.7193 20.8961
540 2 2.2208 -0.328655 15.3938 24.9784
450 2 2.2208 -0.324128 18.1512 22.2793
511 1 -1.1104 4.03339 16.892 20.7755
504 1 -1.1104 3.92215 13.9663 20.7829
672 2 2.2208 5.32291 15.3118 25.0464
671 2 2.2208 5.2819 20.9876 25.0889
669 1 -1.1104 1.01571 14.1988 26.4159
567 2 2.2208 2.55682 15.3021 22.2016
568 2 2.2208 2.58035 21.0479 22.2623
569 1 -1.1104 4.01737 16.8804 23.5072
571 1 -1.1104 1.27898 16.7469 23.6128
599 1 -1.1104 3.91948 13.8316 26.5151
632 1 -1.1104 3.90975 16.653 26.5219
633 2 2.2208 2.57693 18.2228 24.9983
634 1 -1.1104 3.82236 19.5193 26.5984
635 2 2.2208 5.43369 18.3454 22.265
658 1 -1.1104 1.16743 14.0001 23.5546
659 1 -1.1104 1.08799 19.6062 23.5899
663 1 -1.1104 3.96493 19.5717 23.7007
665 1 -1.1104 3.93437 13.9001 23.6675
667 1 -1.1104 1.12513 19.5513 26.376
668 1 -1.1104 1.07542 16.993 26.297
603 1 -1.1104 6.59328 19.7021 26.4849
673 1 -1.1104 6.74501 13.9762 23.7237
574 1 -1.1104 9.49448 13.8823 23.6463
600 1 -1.1104 12.3027 14.0397 23.6607
415 1 -1.1104 9.55838 16.9873 23.8143
578 2 2.2208 11.0326 18.2682 22.2696
605 1 -1.1104 12.3437 19.476 23.667
452 2 2.2208 10.8959 21.1308 25.0325
538 1 -1.1104 9.69135 16.7898 20.9122
531 1 -1.1104 9.51803 14.0382 20.8071
521 1 -1.1104 12.4316 19.5017 20.9111
638 1 -1.1104 12.2265 16.6539 23.7992
383 1 -1.1104 9.3999 13.8951 26.483
384 1 -1.1104 9.44267 19.6722 26.3642
385 2 2.2208 8.17176 15.4695 22.3543
607 1 -1.1104 12.2615 19.8949 26.4535
601 1 -1.1104 9.60244 19.8476 23.5711
606 1 -1.1104 12.3046 13.9654 26.5388
413 2 2.2208 8.2108 21.0786 22.2474
478 2 2.2208 10.8347 15.3412 25.0997
491 1 -1.1104 6.82738 19.5055 20.9217
664 1 -1.1104 6.58958 14.0619 26.3888
670 1 -1.1104 6.97505 19.6621 23.6815
575 1 -1.1104 6.72352 16.9433 23.7892
666 1 -1.1104 6.80821 16.8525 26.4945
327 2 2.2208 10.9324 15.3589 13.8431
512 2 2.2208 5.2282 15.3974 13.868
9352 2 2.2208 -0.231597 15.4542 19.4545
411 2 2.2208 13.6849 15.4322 22.289
637 2 2.2208 -0.155468 12.5197 22.2674
326 2 2.2208 8.13423 6.8845 13.7567
662 2 2.2208 13.8652 6.97636 25.0289
328 2 2.2208 5.35987 1.28145 27.7492
329 2 2.2208 2.36592 15.3316 27.8173
318 2 2.2208 5.40217 -1.45253 13.7316
414 2 2.2208 10.9558 -1.4073 13.7758
338 2 2.2208 2.37691 9.80528 27.9108
674 2 2.2208 5.23619 23.7596 5.30936
675 2 2.2208 5.26675 29.3899 5.18252
676 1 -1.1104 1.04075 25.159 1.13068
677 1 -1.1104 1.0843 25.2849 4.07195
678 1 -1.1104 1.08376 22.268 1.21085
679 1 -1.1104 1.01766 28.036 1.14351
680 2 2.2208 5.02758 26.7011 2.47481
681 1 -1.1104 1.1267 22.3627 4.06022
682 1 -1.1104 1.24943 27.9427 4.0913
683 1 -1.1104 3.74037 25.121 1.02153
684 2 2.2208 2.43635 23.6966 2.57817
685 2 2.2208 2.34339 29.421 2.48645
686 1 -1.1104 3.87759 25.1584 3.99903
687 2 2.2208 2.5888 26.607 5.45336
688 1 -1.1104 3.88623 22.3432 1.09747
689 1 -1.1104 3.72568 27.9875 1.15958
690 1 -1.1104 3.81133 22.3454 3.89035
691 1 -1.1104 3.82724 27.9791 3.97877
698 1 -1.1104 6.48508 27.9749 1.16282
696 1 -1.1104 6.58335 25.1346 3.98828
693 2 2.2208 -0.232161 23.784 5.47341
1006 2 2.2208 5.19913 23.8508 -0.201938
1327 2 2.2208 5.20239 46.3661 -0.34552
1576 1 -1.1104 12.2785 47.7404 6.76561
1007 2 2.2208 2.34749 26.7137 -0.188414
9798 2 2.2208 -0.507991 29.5176 -0.105457
1233 2 2.2208 5.17623 29.4774 -0.184819
699 1 -1.1104 6.64982 22.3894 4.04107
700 1 -1.1104 6.52871 28.1102 3.76826
695 1 -1.1104 6.54168 25.2376 1.06701
697 1 -1.1104 6.59636 22.4434 1.10865
701 2 2.2208 11.0404 23.7263 5.19647
702 2 2.2208 10.7947 29.413 5.27793
703 1 -1.1104 12.3233 25.2236 1.30679
704 1 -1.1104 12.355 25.2525 3.97844
705 1 -1.1104 12.4437 22.3969 1.0798
706 1 -1.1104 12.273 28.0513 1.16756
707 2 2.2208 10.9367 26.807 2.56853
708 1 -1.1104 12.3571 22.3529 3.82425
709 1 -1.1104 12.3177 28.157 3.92093
710 1 -1.1104 9.28257 25.0758 0.726858
711 2 2.2208 7.91378 23.7487 2.53181
712 2 2.2208 7.98233 29.5597 2.57774
713 1 -1.1104 9.58112 25.262 3.61632
714 2 2.2208 7.95358 26.7672 5.16347
715 1 -1.1104 9.48217 22.4413 1.12305
716 1 -1.1104 9.34022 27.9333 1.10751
717 1 -1.1104 9.62764 22.3249 3.9611
718 1 -1.1104 9.41429 28.0489 3.8805
848 1 -1.1104 12.2923 24.8138 6.57169
850 1 -1.1104 12.3946 28.1594 6.6628
852 1 -1.1104 9.40533 27.8145 6.44247
849 1 -1.1104 12.3904 22.2002 6.814
1011 2 2.2208 10.9879 23.8218 0.00413265
816 1 -1.1104 6.99598 25.1492 6.63174
1012 2 2.2208 7.92479 26.7711 -0.204898
723 2 2.2208 5.09988 35.1557 5.23616
724 1 -1.1104 1.10227 30.9117 1.19343
725 1 -1.1104 1.05751 36.554 1.2896
727 1 -1.1104 1.07717 30.7153 3.92112
728 1 -1.1104 1.01483 36.3673 4.05668
730 1 -1.1104 1.00705 33.5926 1.12473
731 2 2.2208 5.29526 32.2138 2.4954
732 2 2.2208 5.14657 37.9114 2.38817
733 1 -1.1104 1.06183 33.7044 4.02726
735 1 -1.1104 3.92249 30.8534 1.11781
736 1 -1.1104 3.88141 36.3701 1.17711
737 2 2.2208 2.42455 34.973 2.62218
738 1 -1.1104 3.76163 30.6752 3.77544
739 1 -1.1104 3.73828 36.444 3.84991
740 2 2.2208 2.35815 32.1307 5.38376
741 2 2.2208 2.40281 37.9695 5.28379
742 1 -1.1104 3.97408 33.5959 1.08186
743 1 -1.1104 3.67127 33.4873 3.96145
876 1 -1.1104 3.7422 36.4711 6.65476
870 1 -1.1104 1.0574 36.516 6.80929
9786 2 2.2208 -0.471931 35.0922 5.31463
1013 2 2.2208 2.35493 37.782 -0.243926
729 1 -1.1104 6.5781 36.4986 3.81209
788 1 -1.1104 3.76557 39.1998 1.01076
1014 2 2.2208 2.5475 32.2262 -0.201886
981 2 2.2208 13.6578 43.4463 5.37345
9787 2 2.2208 -0.559817 32.2843 2.58841
746 1 -1.1104 6.5924 30.7473 1.07345
747 1 -1.1104 6.71532 30.9934 3.90472
748 1 -1.1104 6.72455 33.6269 1.06516
726 1 -1.1104 6.7766 36.3655 1.11841
734 1 -1.1104 6.55992 33.6832 3.96203
749 2 2.2208 10.9689 35.0569 5.27505
750 1 -1.1104 12.2064 30.9566 0.995062
751 1 -1.1104 12.3731 36.5239 1.01086
752 1 -1.1104 12.0683 30.8468 3.96832
753 1 -1.1104 12.2733 36.4003 3.91946
754 1 -1.1104 12.06 33.7581 1.1799
755 2 2.2208 10.8281 32.216 2.4347
756 2 2.2208 10.956 37.8381 2.48368
757 1 -1.1104 12.2355 33.5958 3.94333
758 1 -1.1104 9.36712 30.7948 1.05807
759 1 -1.1104 9.57991 36.5614 1.01751
760 2 2.2208 8.09666 34.9434 2.62757
761 1 -1.1104 9.36456 30.7982 3.94899
762 1 -1.1104 9.48469 36.427 3.75972
763 2 2.2208 7.95992 32.3781 5.32361
764 2 2.2208 8.15307 37.8921 5.28365
765 1 -1.1104 9.43291 33.6355 1.11987
766 1 -1.1104 9.47099 33.5648 3.83759
1017 2 2.2208 8.07357 37.8789 -0.286223
767 1 -1.1104 9.45207 39.1663 6.69731
1597 1 -1.1104 9.50896 47.7283 9.44143
1584 1 -1.1104 12.2526 47.749 12.3696
793 2 2.2208 -0.497875 43.4767 2.39278
774 1 -1.1104 0.994717 39.2896 0.992