ITEM: TIMESTEP
80000
ITEM: NUMBER OF ATOMS
17820
ITEM: BOX BOUNDS pp pp pp
-3.7353171951189507e-01 2.7713531719512023e+01
-4.3652471246526146e+00 3.3244524712464852e+02
-3.6357522286301580e-01 2.7703575222863108e+01
ITEM: ATOMS id type q x y z
1 2 2.2208 5.26752 1.28689 5.22661
2 1 -1.1104 1.1491 -2.93962 1.04543
3 1 -1.1104 1.05747 2.61839 1.11435
6 1 -1.1104 1.1143 -2.93217 3.84322
7 1 -1.1104 0.961639 2.5003 3.87521
10 1 -1.1104 1.1598 -0.118519 1.0478
12 2 2.2208 5.24193 -1.5759 2.62258
13 2 2.2208 5.26987 4.07099 2.52296
14 1 -1.1104 1.01513 -0.218332 3.77698
16 1 -1.1104 3.92785 -2.97234 1.06118
17 1 -1.1104 3.84518 2.65179 0.984037
18 2 2.2208 2.53866 1.22785 2.54296
19 1 -1.1104 3.94637 -2.9094 3.96139
20 1 -1.1104 3.7958 2.70979 3.85479
21 2 2.2208 2.48568 -1.4935 5.38889
22 2 2.2208 2.33685 4.08814 5.30885
23 1 -1.1104 3.73238 -0.16194 1.07092
24 1 -1.1104 3.83723 -0.175429 3.95737
167 1 -1.1104 1.12999 2.58209 6.53527
174 1 -1.1104 3.70572 -0.180408 6.76697
168 1 -1.1104 6.65594 -3.04646 6.69986
170 1 -1.1104 0.908393 -0.162072 6.57057
4 1 -1.1104 6.69824 -3.05824 1.1445
15 1 -1.1104 6.77135 -0.0484767 3.97127
5 1 -1.1104 6.64329 2.52857 1.20474
172 1 -1.1104 3.91307 -2.87919 6.70986
8 1 -1.1104 6.60415 -2.96995 3.87357
169 1 -1.1104 6.67649 2.51327 6.5736
171 1 -1.1104 6.56111 -0.235078 6.61293
173 1 -1.1104 3.98637 2.62744 6.74825
9 1 -1.1104 6.62408 2.79793 3.90091
313 2 2.2208 -0.413735 15.1727 8.00511
327 2 2.2208 10.8221 15.2463 13.6213
166 1 -1.1104 1.11923 -3.06525 6.71794
333 2 2.2208 2.44499 3.93966 -0.453895
315 1 -1.1104 9.47251 16.6392 12.1524
8835 2 2.2208 -0.417171 20.9269 8.13478
11 1 -1.1104 6.5402 -0.175169 1.10064
50 2 2.2208 13.7202 -1.66587 5.40115
31 2 2.2208 10.8391 1.27467 5.32243
32 1 -1.1104 12.1331 -2.92619 0.984558
33 1 -1.1104 12.3978 2.64871 0.953233
34 1 -1.1104 12.2601 -3.05675 4.01549
35 1 -1.1104 12.2755 2.71506 3.67295
36 1 -1.1104 12.3114 -0.244623 1.04739
37 2 2.2208 10.896 -1.60946 2.52682
38 2 2.2208 10.9286 4.07137 2.36343
39 1 -1.1104 12.2587 -0.197513 3.94226
40 1 -1.1104 9.51029 -2.97469 1.03573
41 1 -1.1104 9.59567 2.53923 1.21563
42 2 2.2208 8.09904 1.1158 2.48715
43 1 -1.1104 9.41662 -2.97482 3.84985
44 1 -1.1104 9.43384 2.59784 3.97619
45 2 2.2208 8.07596 -1.63255 5.337
46 2 2.2208 8.04034 4.04326 5.25777
47 1 -1.1104 9.46299 -0.139926 1.03717
48 1 -1.1104 9.43177 -0.205032 4.03599
49 2 2.2208 13.6592 1.14959 2.42033
209 1 -1.1104 9.60658 2.69005 6.70908
210 1 -1.1104 9.59315 -0.103041 6.8563
207 1 -1.1104 12.2943 -0.0600463 6.62222
205 1 -1.1104 12.3372 -2.92822 6.86377
9123 2 2.2208 13.5705 18.1702 8.04043
316 2 2.2208 8.07119 20.953 10.9356
54 2 2.2208 5.20716 6.75067 5.31085
55 2 2.2208 5.33642 12.3482 5.32764
56 1 -1.1104 1.26778 8.28415 1.06007
58 1 -1.1104 1.07297 8.07607 3.78894
60 1 -1.1104 1.0353 5.41484 1.05598
61 1 -1.1104 1.07887 11.0057 0.918367
66 2 2.2208 5.39111 9.64056 2.44035
67 1 -1.1104 1.0218 5.32177 3.93023
68 1 -1.1104 1.06666 10.9302 3.77745
71 1 -1.1104 4.02806 8.20865 1.28459
72 2 2.2208 2.44948 6.66433 2.504
73 2 2.2208 2.44525 12.3324 2.44144
74 1 -1.1104 3.94678 8.15551 3.82725
75 2 2.2208 2.55439 9.44954 5.18114
76 1 -1.1104 3.78376 5.34748 1.13513
77 1 -1.1104 3.91692 10.9742 1.2361
79 1 -1.1104 3.83098 5.3992 3.97402
80 1 -1.1104 4.05225 10.8153 4.0502
236 1 -1.1104 0.903295 5.53961 6.59302
64 1 -1.1104 6.7822 11.0421 0.997017
59 1 -1.1104 6.57635 8.28751 4.03233
69 1 -1.1104 6.6754 5.44986 3.95652
70 1 -1.1104 6.87692 11.0631 3.87757
62 1 -1.1104 1.10751 10.8877 6.67952
239 1 -1.1104 3.86267 5.24997 6.77226
78 1 -1.1104 4.01496 10.9902 6.81536
238 1 -1.1104 3.94688 8.03098 6.69668
65 1 -1.1104 6.70596 11.0116 6.76611
331 2 2.2208 2.4525 20.7836 -0.206456
57 1 -1.1104 6.72028 8.1897 1.0599
63 1 -1.1104 6.68583 5.57027 1.18025
235 1 -1.1104 6.82925 8.21459 6.92826
84 2 2.2208 10.9371 6.84665 5.22359
85 2 2.2208 10.9831 12.4678 5.3025
86 1 -1.1104 12.2338 8.20436 0.952665
87 1 -1.1104 12.449 8.13466 3.89136
88 1 -1.1104 12.4514 5.51427 1.02392
89 1 -1.1104 12.2804 10.9976 1.09753
91 2 2.2208 10.8988 9.52635 2.45071
92 1 -1.1104 12.4 5.4683 3.82386
93 1 -1.1104 12.3725 11.0308 3.94189
94 1 -1.1104 9.51506 8.21341 1.13466
95 2 2.2208 7.99756 6.96281 2.47595
96 2 2.2208 8.33649 12.3926 2.44948
97 1 -1.1104 9.50769 8.22103 3.81857
98 2 2.2208 8.16901 9.66718 5.3549
99 1 -1.1104 9.4232 5.31562 0.908935
100 1 -1.1104 9.46183 10.8071 1.08237
102 1 -1.1104 9.36641 5.44391 3.72927
103 1 -1.1104 9.73695 10.9278 3.90561
269 1 -1.1104 9.45507 5.31256 6.5127
337 2 2.2208 5.3915 6.76361 -0.296734
265 1 -1.1104 12.3975 8.31272 6.61405
101 1 -1.1104 9.45401 11.2225 6.6942
90 1 -1.1104 12.1277 11.0852 6.70036
105 1 -1.1104 12.2291 13.8992 9.35801
266 1 -1.1104 12.2617 5.42057 6.7207
8972 2 2.2208 -0.26045 15.2568 2.44576
106 2 2.2208 5.31659 17.8539 5.27691
107 1 -1.1104 1.15051 13.7369 0.947118
109 1 -1.1104 1.05003 19.3757 1.03618
113 1 -1.1104 1.0795 13.7962 3.73532
114 1 -1.1104 1.10121 19.4742 3.92082
116 1 -1.1104 1.01462 16.6 1.05188
119 2 2.2208 5.43211 15.2259 2.49926
120 2 2.2208 5.16636 20.7508 2.48473
121 1 -1.1104 1.3274 16.6494 3.80086
123 1 -1.1104 3.89246 13.827 1.10154
125 1 -1.1104 3.83765 19.457 1.07083
127 2 2.2208 2.4508 18.0998 2.4925
128 1 -1.1104 3.93407 13.6656 3.91458
129 1 -1.1104 3.96351 19.2537 3.96472
130 2 2.2208 2.52842 15.1929 5.24616
131 2 2.2208 2.38744 20.6567 5.35398
132 1 -1.1104 3.89143 16.7245 0.973929
134 1 -1.1104 4.02534 16.4684 3.7644
115 1 -1.1104 6.93249 13.7929 3.91927
126 1 -1.1104 3.85904 19.4198 6.64504
118 1 -1.1104 6.63663 16.4908 6.60897
122 1 -1.1104 6.71718 16.5081 3.82469
140 1 -1.1104 6.58681 16.6248 0.993435
133 1 -1.1104 3.7986 16.6263 6.76757
112 1 -1.1104 6.72473 19.4063 6.47521
302 1 -1.1104 0.967477 19.4319 6.82308
108 1 -1.1104 1.21483 13.7579 6.49208
139 1 -1.1104 6.79512 19.2774 3.86266
110 1 -1.1104 6.82825 13.6457 1.00119
138 1 -1.1104 6.63665 19.4749 1.05387
8930 2 2.2208 13.6316 15.2963 5.32876
141 2 2.2208 10.822 17.986 5.28443
142 1 -1.1104 12.4255 13.8221 0.873441
144 1 -1.1104 12.4011 19.4911 1.02097
146 1 -1.1104 12.3204 13.8381 3.86757
147 1 -1.1104 12.2666 19.4662 3.90803
148 1 -1.1104 12.3967 16.6765 1.17668
150 2 2.2208 11.0033 15.2299 2.46911
151 2 2.2208 11.0475 20.7781 2.3736
152 1 -1.1104 12.3344 16.7663 3.85555
153 1 -1.1104 9.62108 13.896 0.860048
155 1 -1.1104 9.47942 19.2865 0.916933
157 2 2.2208 8.10012 18.0101 2.35065
158 1 -1.1104 9.75215 13.8502 3.71687
159 1 -1.1104 9.52715 19.4176 3.84471
160 2 2.2208 8.18274 15.1302 5.22579
161 2 2.2208 8.01864 20.7831 5.22514
162 1 -1.1104 9.44236 16.7008 0.981224
164 1 -1.1104 9.48623 16.6102 3.90074
143 1 -1.1104 12.3311 13.9944 6.63937
163 1 -1.1104 9.20434 16.5052 6.69429
145 1 -1.1104 12.2446 19.6228 6.77386
149 1 -1.1104 12.0874 16.6835 6.63446
156 1 -1.1104 9.56211 19.3847 6.58931
154 1 -1.1104 9.38188 13.7263 6.71355
201 2 2.2208 -0.200183 1.26128 10.7633
203 1 -1.1104 9.58686 19.5094 12.1957
199 2 2.2208 -0.279885 4.15412 8.0048
175 2 2.2208 5.17553 1.14455 10.773
176 1 -1.1104 1.1366 -3.05572 12.1225
177 1 -1.1104 1.09589 2.5508 12.258
180 1 -1.1104 0.9515 -2.96667 9.45802
181 1 -1.1104 1.06672 2.72078 9.423
184 1 -1.1104 1.176 -0.284019 12.3354
186 2 2.2208 5.19301 -1.62862 8.11325
188 1 -1.1104 1.0695 -0.0740842 9.54879
190 1 -1.1104 3.72819 -2.81196 12.4345
191 1 -1.1104 3.86588 2.57881 12.1408
192 2 2.2208 2.47376 1.27195 8.0809
193 1 -1.1104 3.77616 -2.89551 9.54804
194 1 -1.1104 3.90998 2.55095 9.38646
195 2 2.2208 2.4554 -1.54255 10.8673
197 1 -1.1104 3.86736 -0.0827479 12.3698
198 1 -1.1104 3.72195 -0.198143 9.51672
196 2 2.2208 2.45746 4.05973 10.9136
187 2 2.2208 5.3012 3.99056 8.21432
183 1 -1.1104 6.74019 2.54352 9.51758
178 1 -1.1104 6.66307 -2.90832 12.3797
182 1 -1.1104 6.56962 -3.05887 9.45298
185 1 -1.1104 6.71965 -0.202517 12.2602
206 1 -1.1104 12.3449 2.65967 6.67545
208 1 -1.1104 9.40779 -2.92761 6.70201
9090 2 2.2208 13.8226 20.8655 10.9257
189 1 -1.1104 6.60064 -0.239148 9.39817
179 1 -1.1104 6.85731 2.52386 12.1242
8862 2 2.2208 13.7342 18.2479 2.52732
230 2 2.2208 13.7163 -1.58425 10.9977
229 2 2.2208 13.6933 1.17435 8.13639
211 2 2.2208 10.8052 1.19156 10.9271
212 1 -1.1104 12.3973 -2.98243 12.5505
213 1 -1.1104 12.2811 2.66081 12.2324
214 1 -1.1104 12.3399 -3.04676 9.64515
215 1 -1.1104 12.368 2.53219 9.57427
216 1 -1.1104 12.4336 -0.30254 12.2599
217 2 2.2208 10.9153 -1.59605 8.24733
218 2 2.2208 10.9183 3.97243 8.11535
219 1 -1.1104 12.2005 -0.270596 9.62353
220 1 -1.1104 9.43656 -3.18355 12.1514
221 1 -1.1104 9.45724 2.78315 12.4187
222 2 2.2208 7.99066 1.23828 8.06604
223 1 -1.1104 9.45047 -3.02948 9.46722
224 1 -1.1104 9.4754 2.64895 9.58349
225 2 2.2208 8.01789 -1.55084 10.9254
227 1 -1.1104 9.58172 -0.360808 12.3568
228 1 -1.1104 9.33223 -0.221399 9.7063
226 2 2.2208 8.05509 3.99667 10.812
30 2 2.2208 13.6479 9.66994 10.9546
8909 2 2.2208 13.6954 21.0069 5.26386
321 2 2.2208 8.18283 1.1914 13.5708
234 1 -1.1104 1.11183 8.28513 6.56993
240 2 2.2208 5.26467 6.86002 10.9
241 2 2.2208 5.2122 12.3952 10.8106
242 1 -1.1104 1.11192 8.42514 12.2591
244 1 -1.1104 0.876752 8.26037 9.3898
246 1 -1.1104 1.28681 5.70685 12.0917
247 1 -1.1104 1.0681 11.1613 12.4068
250 2 2.2208 5.34756 9.5842 8.06106
251 1 -1.1104 1.24644 5.4303 9.34272
252 1 -1.1104 1.10326 11.145 9.46874
255 1 -1.1104 3.97088 8.37429 12.0201
256 2 2.2208 2.4425 6.88929 8.02114
257 2 2.2208 2.49638 12.4065 7.99147
258 1 -1.1104 3.73252 8.23712 9.43474
259 2 2.2208 2.53142 9.78304 10.9167
260 1 -1.1104 3.92692 5.44387 12.2534
261 1 -1.1104 3.91534 11.0376 12.3703
262 1 -1.1104 4.0053 5.40319 9.5989
263 1 -1.1104 3.81249 11.0704 9.51584
249 1 -1.1104 6.56553 10.9735 12.3146
243 1 -1.1104 6.75683 8.22648 12.456
254 1 -1.1104 6.59087 10.9677 9.49107
253 1 -1.1104 6.68973 5.42272 9.42233
9122 2 2.2208 -0.348903 1.19207 5.29535
245 1 -1.1104 6.6185 8.32294 9.61039
324 2 2.2208 5.33511 9.55559 13.7213
267 1 -1.1104 9.66926 8.24276 6.64026
237 1 -1.1104 6.61559 5.37513 6.76542
248 1 -1.1104 6.84809 5.38507 12.2414
231 2 2.2208 8.07562 18.0776 7.89539
264 1 -1.1104 9.4705 11.0759 9.46822
268 1 -1.1104 9.51418 5.35399 9.40339
270 1 -1.1104 9.37268 10.9769 12.3569
271 1 -1.1104 9.58415 5.39102 12.1443
272 2 2.2208 8.06853 9.53032 11.0331
273 1 -1.1104 9.47675 8.22149 9.47984
274 2 2.2208 8.03085 12.4603 8.15727
275 2 2.2208 8.25604 6.75542 7.99454
276 2 2.2208 11.0039 6.72633 10.9639
277 2 2.2208 10.8157 12.399 10.8295
278 1 -1.1104 12.34 8.14989 12.4192
279 1 -1.1104 12.2394 8.14823 9.5299
280 1 -1.1104 12.3952 5.4043 12.4329
281 1 -1.1104 12.2453 10.9457 12.16
282 2 2.2208 10.8006 9.68061 8.18115
283 1 -1.1104 12.3271 5.26582 9.53554
284 1 -1.1104 12.2515 11.0492 9.48521
285 1 -1.1104 9.52097 8.29486 12.3271
52 2 2.2208 13.6374 6.76718 8.13839
233 1 -1.1104 9.45223 19.662 9.40388
326 2 2.2208 8.17929 6.81965 13.7056
325 2 2.2208 7.9957 12.4091 13.7095
597 2 2.2208 10.9903 1.17979 -0.317454
117 1 -1.1104 1.04459 16.5784 6.64196
124 1 -1.1104 3.92167 13.802 6.61163
288 1 -1.1104 6.67247 19.6913 9.36775
111 1 -1.1104 6.6342 13.7624 6.74943
513 2 2.2208 2.43458 18.0395 13.702
296 1 -1.1104 6.6337 19.5099 12.2044
289 1 -1.1104 6.62416 16.834 9.56979
290 1 -1.1104 6.63959 14.0151 9.49609
286 1 -1.1104 3.85312 19.5778 12.3879
287 1 -1.1104 3.89163 13.8519 12.223
291 1 -1.1104 0.985315 19.3712 9.47395
292 1 -1.1104 0.99038 16.6664 9.52368
293 2 2.2208 5.13 20.8363 8.06741
294 1 -1.1104 1.05872 13.7957 9.32633
295 2 2.2208 5.21715 15.2452 8.07741
298 1 -1.1104 1.05746 19.3631 12.3592
299 1 -1.1104 0.902061 13.8586 12.3276
300 2 2.2208 5.1533 18.2146 10.9465
301 1 -1.1104 3.83292 19.4357 9.55112
303 2 2.2208 2.35721 18.0311 8.15029
304 1 -1.1104 3.85775 16.744 9.52862
305 1 -1.1104 3.80773 13.7966 9.44011
307 1 -1.1104 0.943681 16.7436 12.2862
308 1 -1.1104 3.6746 16.7361 12.2039
309 2 2.2208 2.339 20.8089 10.9631
310 2 2.2208 2.46061 15.3132 10.8542
306 1 -1.1104 6.51758 16.818 12.2548
512 2 2.2208 5.22359 15.2824 13.7748
514 2 2.2208 5.27023 20.9318 13.6405
104 1 -1.1104 12.2483 19.4245 12.3064
317 2 2.2208 8.00324 15.3726 10.8368
311 1 -1.1104 12.3531 16.6896 9.30415
27 1 -1.1104 12.2813 13.7718 12.2194
541 2 2.2208 8.10656 18.1535 13.6333
9383 2 2.2208 13.8249 18.0714 13.713
232 1 -1.1104 9.3753 13.8986 9.47737
136 1 -1.1104 12.3214 16.5948 12.3066
202 1 -1.1104 9.41797 13.8559 12.2408
165 2 2.2208 10.7966 20.9523 8.16533
26 2 2.2208 10.8413 18.0812 10.7523
314 1 -1.1104 9.53426 16.7673 9.38782
137 2 2.2208 10.7423 15.2804 8.03733
297 1 -1.1104 6.69376 14.0006 12.3501
135 1 -1.1104 12.2633 19.4682 9.61151
8837 2 2.2208 13.7569 4.08633 5.34504
328 2 2.2208 5.09509 1.2346 -0.340061
53 2 2.2208 13.7549 9.70849 5.41499
83 2 2.2208 -0.235344 12.4182 5.27524
318 2 2.2208 5.26797 -1.50216 13.7304
320 2 2.2208 5.22237 4.0049 13.6053
8457 2 2.2208 5.09028 -4.47595 -0.346544
323 2 2.2208 2.52204 6.7428 13.5156
29 2 2.2208 -0.361793 12.5589 10.8935
453 2 2.2208 10.9071 9.60766 13.7388
539 2 2.2208 10.9779 20.8012 13.6741
332 2 2.2208 2.45534 -1.59795 -0.405617
329 2 2.2208 2.50484 15.2175 -0.315214
661 2 2.2208 13.8086 9.60416 -0.328891
343 2 2.2208 5.3048 1.17046 16.5494
344 1 -1.1104 1.04408 -2.89813 17.8769
345 1 -1.1104 1.04911 2.59148 18.2208
348 1 -1.1104 0.995999 -3.08097 14.9791
350 1 -1.1104 0.938073 2.59566 15.2766
356 1 -1.1104 1.18861 -0.190616 17.9191
358 2 2.2208 5.43871 -1.5676 19.2719
359 2 2.2208 5.15166 4.03006 19.1284
360 1 -1.1104 1.1573 -0.231314 15.1899
364 1 -1.1104 3.84 -2.87918 17.9113
365 1 -1.1104 3.75452 2.66184 17.8729
366 2 2.2208 2.51523 1.2104 19.312
367 1 -1.1104 3.9011 -3.04029 15.2054
369 1 -1.1104 4.05601 2.50374 15.0907
371 2 2.2208 2.51921 -1.65909 16.571
373 1 -1.1104 4.05166 -0.235736 17.8322
374 1 -1.1104 3.87041 -0.267926 15.0799
372 2 2.2208 2.40706 4.04828 16.3753
352 1 -1.1104 6.71394 -2.99481 15.057
357 1 -1.1104 6.91957 -0.135145 17.9137
362 1 -1.1104 6.74501 -0.275066 15.0027
347 1 -1.1104 6.7636 2.71435 17.9303
9166 2 2.2208 -0.238296 20.7775 25.0275
368 1 -1.1104 3.88827 -3.02907 20.6483
375 1 -1.1104 4.05681 -0.318162 20.5792
8499 2 2.2208 8.02648 -4.40236 25.013
9167 2 2.2208 13.7223 17.9179 24.982
354 1 -1.1104 6.80704 2.5344 15.0236
346 1 -1.1104 6.71858 -3.00226 17.8774
386 2 2.2208 10.976 1.16312 16.46
387 1 -1.1104 12.2981 2.4934 18.0581
388 1 -1.1104 12.2338 -3.20815 15.5153
389 1 -1.1104 12.4682 2.54808 15.2291
391 1 -1.1104 12.2473 -0.582709 17.7212
392 2 2.2208 10.818 -1.50283 19.2959
393 2 2.2208 10.8279 3.96654 19.3259
394 1 -1.1104 12.4372 -0.236135 14.9736
396 1 -1.1104 9.68241 -3.16115 17.9654
397 1 -1.1104 9.57889 2.67105 18.0395
398 2 2.2208 8.15037 1.26825 19.3165
399 1 -1.1104 9.51629 -2.9629 15.0953
401 1 -1.1104 9.76443 2.64273 15.2425
403 2 2.2208 8.20055 -1.67376 16.5321
405 1 -1.1104 9.54768 -0.0670945 17.9314
406 1 -1.1104 9.57417 -0.189053 15.1992
404 2 2.2208 8.1757 4.00651 16.5456
390 1 -1.1104 12.3892 2.33004 20.9992
400 1 -1.1104 9.79401 -2.84655 20.7062
395 1 -1.1104 12.3564 -0.606225 20.7676
9168 2 2.2208 13.7543 3.94269 16.5376
363 1 -1.1104 6.69068 -0.370831 20.7611
606 1 -1.1104 12.3627 13.8207 26.1937
322 2 2.2208 10.855 4.07317 13.6751
416 2 2.2208 5.25343 6.88915 16.4798
417 2 2.2208 5.40348 12.249 16.4774
418 1 -1.1104 1.13441 8.26383 17.7681
420 1 -1.1104 1.00633 8.24817 15.0184
424 1 -1.1104 1.05607 5.48901 17.9082
425 1 -1.1104 1.10611 11.0026 18.0585
428 2 2.2208 5.36355 9.59123 19.2286
429 1 -1.1104 1.14616 5.64975 15.3123
431 1 -1.1104 1.17727 11.2077 15.1855
437 1 -1.1104 3.9865 8.3692 17.8098
438 2 2.2208 2.43231 6.85659 19.186
439 2 2.2208 2.59396 12.381 19.3208
440 1 -1.1104 3.89305 8.11242 14.8685
442 2 2.2208 2.4477 9.65157 16.3838
443 1 -1.1104 3.8113 5.48921 17.8956
444 1 -1.1104 3.72499 11.0631 17.8569
445 1 -1.1104 3.88175 5.27953 14.9423
447 1 -1.1104 3.95581 10.8945 15.045
448 1 -1.1104 4.0104 11.0105 20.7102
427 1 -1.1104 6.65369 10.9695 17.9116
435 1 -1.1104 6.80299 10.8618 14.9902
430 1 -1.1104 1.05655 5.32739 20.8026
419 1 -1.1104 6.62603 8.05599 17.8862
446 1 -1.1104 3.81847 5.47926 20.6067
421 1 -1.1104 1.06016 8.07929 20.6131
426 1 -1.1104 6.57958 5.4268 18.0783
423 1 -1.1104 6.77941 8.2091 20.8114
422 1 -1.1104 6.69012 8.10867 15.1723
666 1 -1.1104 6.63386 16.5338 26.2325
600 1 -1.1104 12.4954 13.7413 23.5254
381 2 2.2208 -0.329725 -1.35892 13.6986
436 1 -1.1104 6.74145 10.9809 20.7159
433 1 -1.1104 6.84191 5.43338 15.0202
454 2 2.2208 10.9122 6.75981 16.6347
455 2 2.2208 10.7892 12.4562 16.5359
456 1 -1.1104 12.3407 8.16178 18.0197
457 1 -1.1104 12.4489 8.27916 15.2087
459 1 -1.1104 12.2752 5.35847 17.897
460 1 -1.1104 12.1265 11.0426 17.9304
461 2 2.2208 10.9562 9.56477 19.3391
462 1 -1.1104 12.2726 5.35048 15.1236
464 1 -1.1104 12.2314 11.0408 15.0547
466 1 -1.1104 9.52809 8.12502 18.0183
467 2 2.2208 8.05248 6.78931 19.3519
468 2 2.2208 7.99708 12.3609 19.4202
469 1 -1.1104 9.56438 8.23075 15.1874
471 2 2.2208 8.07709 9.62187 16.4169
472 1 -1.1104 9.39684 5.30993 17.9241
473 1 -1.1104 9.35067 11.0184 17.8526
474 1 -1.1104 9.52845 5.3486 15.1927
476 1 -1.1104 9.47146 10.9894 15.0571
570 2 2.2208 13.6697 9.55791 16.5576
465 1 -1.1104 12.3618 10.9747 20.7659
470 1 -1.1104 9.61688 8.30365 20.7471
475 1 -1.1104 9.49747 5.44125 20.7109
477 1 -1.1104 9.47627 11.0201 20.6748
410 2 2.2208 13.713 6.73965 19.3782
409 2 2.2208 13.666 12.4015 19.3658
411 2 2.2208 13.7899 15.1296 22.0775
9313 2 2.2208 13.7487 20.8792 16.4388
479 2 2.2208 5.34761 18.0287 16.4
480 1 -1.1104 1.01955 13.7211 18.0238
481 1 -1.1104 1.15369 19.4838 17.8205
484 1 -1.1104 1.1468 13.7716 15.1093
486 1 -1.1104 1.10371 19.4609 15.0133
492 1 -1.1104 1.20139 16.6049 18.0361
494 2 2.2208 5.43335 15.2891 19.405
495 2 2.2208 5.36948 20.8339 19.3237
496 1 -1.1104 0.97192 16.5478 15.2967
500 1 -1.1104 3.87646 13.8014 17.7955
501 1 -1.1104 4.08568 19.4448 17.7252
502 2 2.2208 2.59104 18.0822 19.3164
503 1 -1.1104 4.10554 13.8035 15.0827
505 1 -1.1104 3.8224 19.5144 15.0428
507 2 2.2208 2.44413 15.1851 16.6201
508 2 2.2208 2.51168 20.7798 16.5624
509 1 -1.1104 3.86156 16.6489 17.8891
510 1 -1.1104 3.76793 16.5723 15.0062
485 1 -1.1104 1.13252 13.8471 20.7751
482 1 -1.1104 6.58632 13.7472 18.1166
489 1 -1.1104 6.79378 13.8125 20.7744
499 1 -1.1104 6.58311 16.5638 20.8814
483 1 -1.1104 6.72724 19.387 17.8331
498 1 -1.1104 6.82184 16.5776 15.0705
493 1 -1.1104 6.82317 16.5624 17.8871
487 1 -1.1104 1.18276 19.3002 20.7409
504 1 -1.1104 4.0991 13.8863 20.7666
506 1 -1.1104 4.10367 19.5432 20.7844
490 1 -1.1104 6.65572 19.4868 15.0387
478 2 2.2208 11.0177 15.226 24.9295
488 1 -1.1104 6.58377 13.615 15.0295
491 1 -1.1104 6.78689 19.359 20.7483
515 2 2.2208 10.8397 17.9076 16.3908
516 1 -1.1104 12.1865 13.8253 17.9445
517 1 -1.1104 12.2803 19.2576 17.8441
518 1 -1.1104 12.3103 13.8544 15.1084
520 1 -1.1104 12.4284 19.5442 15.1126
522 1 -1.1104 12.1946 16.5322 17.7915
523 2 2.2208 10.7422 15.1401 19.2879
524 2 2.2208 10.9814 20.7025 19.2015
525 1 -1.1104 12.3219 16.7739 15.008
527 1 -1.1104 9.3549 13.7209 17.834
528 1 -1.1104 9.47436 19.3714 17.8192
529 2 2.2208 8.21961 17.8904 19.2936
530 1 -1.1104 9.34364 13.8453 15.103
532 1 -1.1104 9.45345 19.3613 14.9485
534 2 2.2208 8.05238 15.1196 16.4627
535 2 2.2208 8.0333 20.8452 16.5197
536 1 -1.1104 9.43082 16.5732 17.7548
537 1 -1.1104 9.44582 16.7179 14.8866
519 1 -1.1104 12.2168 13.8489 20.7224
531 1 -1.1104 9.50044 13.7865 20.7888
521 1 -1.1104 12.3381 19.3525 20.5902
9310 2 2.2208 13.6495 15.2376 16.5664
526 1 -1.1104 12.3496 16.5292 20.5902
538 1 -1.1104 9.47782 16.4958 20.6176
9312 2 2.2208 13.7782 17.9837 19.2722
370 1 -1.1104 3.90496 2.56503 20.5956
355 1 -1.1104 6.76506 2.51789 20.7469
415 1 -1.1104 9.65938 16.582 23.4221
361 1 -1.1104 0.981232 -0.324455 20.7491
349 1 -1.1104 1.1233 -3.10184 20.5144
351 1 -1.1104 1.16459 2.64072 20.8196
543 2 2.2208 5.31479 1.19615 22.2092
544 1 -1.1104 1.12743 -2.87025 23.2877
545 1 -1.1104 1.10252 2.55547 23.5557
548 1 -1.1104 0.99412 -3.01307 26.1735
549 1 -1.1104 1.0885 2.46315 26.4246
552 1 -1.1104 1.0352 -0.17809 23.5539
554 2 2.2208 5.38681 -1.74278 24.9116
556 1 -1.1104 1.09217 -0.16556 26.3981
558 1 -1.1104 3.8906 -3.01997 23.3789
559 1 -1.1104 3.87529 2.60492 23.4696
560 2 2.2208 2.52709 1.0553 24.8791
561 1 -1.1104 3.70924 -3.04295 26.2479
562 1 -1.1104 3.91376 2.50302 26.2461
563 2 2.2208 2.53602 -1.6453 21.8895
564 2 2.2208 2.50331 4.09261 22.1216
565 1 -1.1104 4.00612 -0.114139 23.4764
566 1 -1.1104 3.89308 -0.363917 26.2706
555 2 2.2208 5.35529 4.0003 24.9322
546 1 -1.1104 6.81345 -3.01239 23.5902
553 1 -1.1104 6.82635 0.11079 23.5558
557 1 -1.1104 6.76626 -0.270721 26.3301
379 2 2.2208 -0.224564 1.08326 16.5446
547 1 -1.1104 6.6705 2.67612 23.6339
8534 2 2.2208 10.7716 -4.364 27.7181
601 1 -1.1104 9.62199 19.4344 23.5126
353 1 -1.1104 6.89467 -3.09808 20.7839
402 1 -1.1104 9.49049 2.67373 20.7326
407 1 -1.1104 9.63696 -0.131703 20.5988
551 1 -1.1104 6.69496 2.61103 26.2962
550 1 -1.1104 6.71032 -3.16821 26.3886
452 2 2.2208 10.8735 20.8249 24.8174
579 2 2.2208 10.9896 1.20014 22.4252
580 1 -1.1104 12.2605 -2.82366 23.2755
581 1 -1.1104 12.271 2.79443 23.4644
582 1 -1.1104 12.288 -3.12927 26.3641
583 1 -1.1104 12.1657 2.53377 26.1525
584 1 -1.1104 12.5314 -0.0706029 23.5367
585 2 2.2208 11.0237 -1.73556 24.9095
586 2 2.2208 10.8513 4.03555 24.8558
587 1 -1.1104 12.3328 -0.201367 26.2201
588 1 -1.1104 9.50525 -3.10018 23.5244
589 1 -1.1104 9.50512 2.5057 23.6394
590 2 2.2208 8.13402 1.21594 25.0726
591 1 -1.1104 9.54851 -3.01963 26.2785
592 1 -1.1104 9.55563 2.69465 26.5845
593 2 2.2208 8.29029 -1.49478 22.1824
594 2 2.2208 8.0371 3.92377 22.0679
595 1 -1.1104 9.57689 -0.229613 23.6519
596 1 -1.1104 9.62677 -0.129285 26.3782
657 2 2.2208 10.9546 6.74591 27.5931
9208 2 2.2208 13.812 1.24283 24.8921
338 2 2.2208 2.59871 9.7116 27.8115
336 2 2.2208 8.04505 4.02914 27.8072
380 2 2.2208 -0.313626 -1.61079 19.3695
432 1 -1.1104 1.04613 10.9992 20.8085
434 1 -1.1104 6.66045 5.38342 20.6718
441 1 -1.1104 3.98278 8.30163 20.7344
608 2 2.2208 5.36156 6.68711 22.1948
609 2 2.2208 5.30049 12.4678 22.1136
610 1 -1.1104 1.12851 8.16844 23.3801
612 1 -1.1104 1.16184 7.93177 26.214
614 1 -1.1104 1.0728 5.3211 23.5186
615 1 -1.1104 1.068 10.9717 23.5362
618 2 2.2208 5.37546 9.61368 24.8749
619 1 -1.1104 1.1881 5.27401 26.3287
620 1 -1.1104 1.1711 10.8735 26.3192
623 1 -1.1104 4.03483 8.09337 23.7152
624 2 2.2208 2.49947 6.77217 24.9792
625 2 2.2208 2.40106 12.3068 24.9601
626 1 -1.1104 3.97068 8.23265 26.3042
627 2 2.2208 2.50827 9.57973 22.1962
628 1 -1.1104 3.93484 5.29919 23.5267
629 1 -1.1104 3.94577 10.8847 23.5329
630 1 -1.1104 3.82399 5.33734 26.2786
631 1 -1.1104 4.03233 11.0721 26.3954
616 1 -1.1104 6.81883 5.33635 23.5126
621 1 -1.1104 6.71327 5.34194 26.4572
622 1 -1.1104 6.87359 10.8379 26.2044
611 1 -1.1104 6.7586 8.18364 23.4593
339 2 2.2208 5.37125 12.365 27.7552
383 1 -1.1104 9.49549 13.8446 26.1907
578 2 2.2208 11.0526 17.9618 22.0561
458 1 -1.1104 12.4715 8.14197 20.776
617 1 -1.1104 6.73883 11.0908 23.4082
613 1 -1.1104 6.71483 8.11564 26.396
463 1 -1.1104 12.3043 5.2471 20.7688
574 1 -1.1104 9.54082 13.8047 23.5531
662 2 2.2208 13.7065 6.78845 24.8962
377 2 2.2208 13.7639 9.62261 22.1217
639 1 -1.1104 9.51346 11.0775 26.2901
640 1 -1.1104 9.47901 5.39536 26.2175
641 1 -1.1104 9.56468 11.099 23.4363
642 1 -1.1104 9.48944 5.32259 23.5032
643 2 2.2208 8.19649 9.61879 22.1005
644 1 -1.1104 9.54107 8.16914 26.3211
645 2 2.2208 8.08498 12.3974 24.8328
646 2 2.2208 8.11859 6.72428 24.8624
647 2 2.2208 10.9919 6.82564 22.1638
648 2 2.2208 11.0248 12.4133 22.0815
649 1 -1.1104 12.3632 8.28926 23.5773
650 1 -1.1104 12.3427 8.13924 26.3621
651 1 -1.1104 12.3554 5.46813 23.4517
652 1 -1.1104 12.3662 10.955 23.4998
653 2 2.2208 10.8894 9.74581 25.0035
654 1 -1.1104 12.2797 5.36685 26.3185
655 1 -1.1104 12.4003 10.9639 26.4485
656 1 -1.1104 9.52659 8.21594 23.5737
342 2 2.2208 10.9018 12.3721 27.7018
341 2 2.2208 8.09772 9.55049 27.6211
605 1 -1.1104 12.4061 19.4697 23.5285
511 1 -1.1104 3.95073 16.7654 20.6232
497 1 -1.1104 1.12241 16.5461 20.748
664 1 -1.1104 6.59545 13.7821 26.3443
575 1 -1.1104 6.76778 16.5411 23.6235
670 1 -1.1104 6.85754 19.4055 23.5281
673 1 -1.1104 6.64115 13.7395 23.6205
672 2 2.2208 5.21162 15.1663 24.9485
671 2 2.2208 5.33104 20.798 24.9069
669 1 -1.1104 0.930862 13.6629 26.2891
567 2 2.2208 2.51197 15.3086 22.0754
568 2 2.2208 2.61837 20.7285 22.1838
569 1 -1.1104 3.93832 16.4846 23.4519
571 1 -1.1104 1.19883 16.5578 23.5727
599 1 -1.1104 3.78136 13.8699 26.2663
632 1 -1.1104 3.81021 16.598 26.2698
633 2 2.2208 2.39304 17.9599 24.9505
634 1 -1.1104 3.73285 19.4613 26.4297
635 2 2.2208 5.33663 18.0277 22.1543
658 1 -1.1104 1.04995 13.8172 23.5471
659 1 -1.1104 1.10419 19.2848 23.4689
663 1 -1.1104 3.92766 19.3484 23.5205
665 1 -1.1104 3.72986 13.6983 23.5828
667 1 -1.1104 1.06969 19.1742 26.2405
668 1 -1.1104 1.13056 16.5131 26.3556
603 1 -1.1104 6.71473 19.3231 26.2318
8603 2 2.2208 -0.401223 -4.39982 27.6464
330 2 2.2208 5.25928 18.0607 27.586
335 2 2.2208 8.0529 20.8132 27.7319
412 2 2.2208 8.02549 15.1592 27.6582
533 1 -1.1104 9.44949 19.4747 20.6617
607 1 -1.1104 12.2554 19.2053 26.2286
385 2 2.2208 8.1753 15.166 22.3012
384 1 -1.1104 9.40998 19.7427 26.3262
573 1 -1.1104 12.2717 16.5744 26.2896
542 2 2.2208 11.0334 17.9591 27.6615
449 1 -1.1104 9.55009 16.6217 26.2999
413 2 2.2208 8.21092 20.7786 22.1144
638 1 -1.1104 12.4055 16.5567 23.5132
602 2 2.2208 8.19778 17.9633 24.9719
637 2 2.2208 -0.33647 12.4577 22.0374
9353 2 2.2208 -0.356227 18.125 16.4885
9352 2 2.2208 -0.282394 15.09 19.3145
319 2 2.2208 2.5521 1.32917 13.7891
598 2 2.2208 8.11261 -1.74229 27.7739
414 2 2.2208 10.9469 -1.64065 13.7938
451 2 2.2208 2.61391 12.5431 13.7967
674 2 2.2208 5.19587 23.6466 5.27164
675 2 2.2208 5.23777 29.2586 5.23933
676 1 -1.1104 1.05534 25.0829 1.12439
677 1 -1.1104 0.977765 25.1484 3.9655
678 1 -1.1104 0.994372 22.2302 1.03072
679 1 -1.1104 0.902321 27.906 1.05539
680 2 2.2208 5.12933 26.3597 2.42499
681 1 -1.1104 1.01575 22.1282 3.78333
682 1 -1.1104 0.942468 28.0021 3.86066
683 1 -1.1104 3.66154 25.0781 1.14648
684 2 2.2208 2.34523 23.5915 2.50044
685 2 2.2208 2.30937 29.2536 2.43006
686 1 -1.1104 3.69479 24.7991 4.00563
687 2 2.2208 2.37133 26.5517 5.2418
688 1 -1.1104 3.77066 22.2673 1.14595
689 1 -1.1104 3.75975 27.9735 0.890902
690 1 -1.1104 3.89412 22.1322 3.81034
691 1 -1.1104 3.82231 27.8059 3.79112
823 1 -1.1104 3.7034 27.8805 6.62637
695 1 -1.1104 6.47847 25.0793 1.13851
819 1 -1.1104 6.5815 22.1471 6.65958
699 1 -1.1104 6.66838 22.1967 3.92657
696 1 -1.1104 6.47335 25.1436 3.94102
818 1 -1.1104 0.957596 27.9461 6.73544
820 1 -1.1104 6.56079 27.7384 6.68135
700 1 -1.1104 6.53736 27.8019 3.75026
698 1 -1.1104 6.52821 27.8986 1.09351
821 1 -1.1104 3.86504 25.0484 6.78276
817 1 -1.1104 1.00393 22.3372 6.6817
991 2 2.2208 13.6536 46.0277 8.04702
1565 1 -1.1104 3.96902 47.4868 9.38457
697 1 -1.1104 6.64125 22.2229 1.01577
701 2 2.2208 10.8939 23.484 5.19754
702 2 2.2208 10.794 28.9453 5.29433
703 1 -1.1104 12.0598 24.8344 1.13459
704 1 -1.1104 12.1457 24.9676 3.78331
705 1 -1.1104 12.4297 22.1713 1.03596
706 1 -1.1104 12.2232 27.597 1.18785
707 2 2.2208 10.7427 26.3352 2.49491
708 1 -1.1104 12.2135 22.272 3.72725
709 1 -1.1104 12.0759 27.8138 3.92406
710 1 -1.1104 9.2845 24.9832 0.863338
711 2 2.2208 8.06351 23.58 2.47178
712 2 2.2208 7.97925 29.3074 2.52024
713 1 -1.1104 9.37247 24.8977 4.04533
714 2 2.2208 7.95065 26.4702 5.18909
715 1 -1.1104 9.4942 22.2146 1.10969
716 1 -1.1104 9.29113 27.8823 1.2425
717 1 -1.1104 9.42306 22.209 3.97592
718 1 -1.1104 9.40676 27.7157 3.79511
816 1 -1.1104 6.81581 25.0283 6.79936
852 1 -1.1104 9.38318 27.5797 6.57922
851 1 -1.1104 9.33314 22.462 6.75562
848 1 -1.1104 12.0687 24.929 6.64224
850 1 -1.1104 12.4376 27.9555 6.56504
849 1 -1.1104 12.2054 22.2196 6.57672
720 2 2.2208 13.5254 29.1701 2.48554
1004 2 2.2208 8.09731 40.6818 13.7837
9959 2 2.2208 -0.51004 32.0543 13.7942
723 2 2.2208 5.33813 34.8313 5.30675
724 1 -1.1104 1.00197 30.6056 1.14296
725 1 -1.1104 0.92063 36.1914 1.2441
727 1 -1.1104 1.13549 30.8129 3.80895
728 1 -1.1104 1.07955 36.3377 3.9105
730 1 -1.1104 1.11611 33.4398 1.00173
731 2 2.2208 5.22737 32.0355 2.49419
732 2 2.2208 5.23838 37.7197 2.35598
733 1 -1.1104 0.894896 33.605 4.10392
735 1 -1.1104 3.80897 30.8706 1.08599
736 1 -1.1104 3.7095 36.1803 1.10599
737 2 2.2208 2.40697 34.8444 2.57711
738 1 -1.1104 4.00891 30.5888 3.83766
739 1 -1.1104 3.92343 36.0678 3.79948
740 2 2.2208 2.39243 32.1143 5.40365
741 2 2.2208 2.58398 37.631 5.23524
742 1 -1.1104 3.90411 33.4718 1.13068
743 1 -1.1104 3.77126 33.3655 3.9823
876 1 -1.1104 3.94604 36.4144 6.7213
870 1 -1.1104 1.12374 36.2174 6.48406
877 1 -1.1104 3.86886 33.4254 6.58732
746 1 -1.1104 6.63438 30.63 0.899842
726 1 -1.1104 6.5092 36.2029 1.16047
748 1 -1.1104 6.64789 33.4028 1.08576
729 1 -1.1104 6.65392 36.1821 3.84096
871 1 -1.1104 6.66735 30.504 6.73015
875 1 -1.1104 3.94879 30.6146 6.67449
869 1 -1.1104 0.935053 30.7084 6.74009
1209 2 2.2208 11.0851 43.3126 13.7993
1013 2 2.2208 2.29187 37.4932 -0.107368
734 1 -1.1104 6.70071 33.4065 3.89413
872 1 -1.1104 6.70871 36.192 6.74841
747 1 -1.1104 6.67937 30.7011 4.09185
874 1 -1.1104 6.68401 33.5173 6.84032
980 2 2.2208 13.6113 32.0035 5.26143
749 2 2.2208 10.902 34.9265 5.33346
750 1 -1.1104 12.2347 30.5203 1.10132
751 1 -1.1104 12.295 36.1504 1.10022
752 1 -1.1104 12.1359 30.6476 4.0322
753 1 -1.1104 12.3052 36.3 3.91916
754 1 -1.1104 12.2412 33.4112 1.07904
755 2 2.2208 10.8172 31.9926 2.65879
756 2 2.2208 10.9294 37.6349 2.35339
757 1 -1.1104 12.1737 33.4487 3.89762
758 1 -1.1104 9.37107 30.7595 1.11039
759 1 -1.1104 9.31173 36.2747 0.969647
760 2 2.2208 8.09574 34.7638 2.49809
761 1 -1.1104 9.44826 30.3554 3.93806
762 1 -1.1104 9.55289 36.1041 3.72218
763 2 2.2208 8.1536 32.0317 5.41617
764 2 2.2208 8.02526 37.6756 5.27991
765 1 -1.1104 9.54083 33.4414 1.10531
766 1 -1.1104 9.42349 33.3251 3.9644
907 1 -1.1104 9.52793 33.459 6.76886
906 1 -1.1104 9.43753 36.2319 6.65802
904 1 -1.1104 12.3355 33.4433 6.79597
1263 2 2.2208 8.06742 43.246 -0.24065
905 1 -1.1104 9.70034 30.4465 6.675