ITEM: TIMESTEP
40000
ITEM: NUMBER OF ATOMS
17820
ITEM: BOX BOUNDS pp pp pp
-3.6131780285715559e-01 2.7701317802857375e+01
-4.4082197656202418e+00 3.3248821976561885e+02
-3.7131884255616626e-01 2.7711318842556153e+01
ITEM: ATOMS id type q x y z
1 2 2.2208 5.29296 1.28877 5.20788
2 1 -1.1104 1.1133 -3.07247 1.12189
3 1 -1.1104 1.04612 2.60682 0.992604
6 1 -1.1104 1.09277 -2.83604 3.88552
7 1 -1.1104 1.15462 2.67067 3.78674
10 1 -1.1104 1.04823 -0.266494 0.938643
12 2 2.2208 5.32717 -1.51954 2.42465
13 2 2.2208 5.29406 4.18448 2.45725
14 1 -1.1104 1.13909 -0.123308 3.70463
16 1 -1.1104 3.93396 -2.9253 0.965006
17 1 -1.1104 3.8958 2.59686 1.02648
18 2 2.2208 2.41106 1.2244 2.40311
19 1 -1.1104 3.96079 -2.96733 3.8145
20 1 -1.1104 3.94307 2.87815 3.90775
21 2 2.2208 2.46779 -1.51658 5.18419
22 2 2.2208 2.48929 4.16268 5.27584
23 1 -1.1104 3.91533 -0.147217 1.02763
24 1 -1.1104 4.02552 -0.0380148 3.72975
172 1 -1.1104 3.79174 -2.89895 6.70622
174 1 -1.1104 3.77434 -0.236417 6.56282
4 1 -1.1104 6.82549 -2.93931 0.953704
169 1 -1.1104 6.60565 2.52576 6.66887
170 1 -1.1104 1.01238 -0.119786 6.58684
9 1 -1.1104 6.56253 2.60044 3.6979
5 1 -1.1104 6.81207 2.72043 0.89364
11 1 -1.1104 6.61715 -0.102467 0.927256
8 1 -1.1104 6.74284 -2.8376 3.79707
8441 2 2.2208 5.22106 -4.3423 5.24497
167 1 -1.1104 1.07899 2.62991 6.59082
171 1 -1.1104 6.60384 -0.187907 6.69842
8444 2 2.2208 10.9604 -4.26213 5.40532
8440 2 2.2208 2.49894 -4.36789 2.50537
8446 2 2.2208 2.51529 -4.40479 7.9755
83 2 2.2208 -0.35174 12.4644 5.09473
15 1 -1.1104 6.59948 -0.0925307 3.83703
168 1 -1.1104 6.60561 -2.99283 6.6999
31 2 2.2208 10.901 1.23705 5.42272
32 1 -1.1104 12.3471 -3.14508 1.07813
33 1 -1.1104 12.3162 2.40131 1.06522
34 1 -1.1104 12.3325 -2.98355 3.89253
35 1 -1.1104 12.2591 2.73719 3.8663
36 1 -1.1104 12.2203 -0.343138 0.965729
37 2 2.2208 10.8977 -1.56676 2.47634
38 2 2.2208 10.8136 4.13549 2.56085
39 1 -1.1104 12.1042 -0.0989264 3.84148
40 1 -1.1104 9.54981 -2.85611 1.04601
41 1 -1.1104 9.47945 2.73341 0.992145
42 2 2.2208 8.04547 1.26772 2.43389
43 1 -1.1104 9.60168 -2.78582 3.91298
44 1 -1.1104 9.40752 2.69267 3.98152
45 2 2.2208 8.03714 -1.42651 5.2685
46 2 2.2208 8.04927 4.08923 5.32742
47 1 -1.1104 9.45796 -0.0277393 1.17565
48 1 -1.1104 9.454 -0.0380818 3.94627
209 1 -1.1104 9.39162 2.58255 6.67009
9122 2 2.2208 -0.249696 1.14763 5.17307
205 1 -1.1104 12.3376 -2.87672 6.87734
208 1 -1.1104 9.394 -2.88007 6.64836
8443 2 2.2208 8.1906 -4.25593 2.56326
54 2 2.2208 5.30965 6.93659 5.22211
55 2 2.2208 5.25413 12.3486 5.22506
56 1 -1.1104 1.04271 8.23571 1.05953
58 1 -1.1104 1.11222 8.20993 3.98533
60 1 -1.1104 1.05654 5.56717 1.10409
61 1 -1.1104 1.02668 11.0316 1.03394
66 2 2.2208 5.18097 9.80161 2.41392
67 1 -1.1104 1.16738 5.33298 3.65747
68 1 -1.1104 1.07104 10.9814 3.86642
71 1 -1.1104 3.76967 8.25117 1.22111
72 2 2.2208 2.34142 6.91252 2.46749
73 2 2.2208 2.3492 12.4119 2.46736
74 1 -1.1104 3.91118 8.3967 4.00349
75 2 2.2208 2.46848 9.57739 5.27801
76 1 -1.1104 3.86178 5.44409 1.06024
77 1 -1.1104 3.92861 11.0783 0.978632
79 1 -1.1104 3.89735 5.56074 3.89408
80 1 -1.1104 3.82872 11.1087 3.82934
236 1 -1.1104 1.06169 5.34711 6.56727
239 1 -1.1104 3.94258 5.4763 6.66924
238 1 -1.1104 3.81564 8.14928 6.67072
70 1 -1.1104 6.60221 11.0856 3.80606
64 1 -1.1104 6.77169 11.1528 1.03912
59 1 -1.1104 6.97924 8.24104 3.95292
63 1 -1.1104 6.77519 5.39713 0.972236
62 1 -1.1104 1.01641 11.0703 6.66619
78 1 -1.1104 3.70338 11.0505 6.50562
65 1 -1.1104 6.63195 11.1359 6.63524
235 1 -1.1104 6.64006 8.29868 6.74576
203 1 -1.1104 9.48251 19.5053 12.4223
8449 2 2.2208 10.8679 -4.42753 10.9527
69 1 -1.1104 6.67413 5.53107 3.81783
57 1 -1.1104 6.63951 8.38468 1.07184
84 2 2.2208 10.7761 6.83744 5.3175
85 2 2.2208 10.7815 12.5604 5.37105
86 1 -1.1104 12.28 8.06658 1.0268
87 1 -1.1104 12.1864 8.40924 3.8964
88 1 -1.1104 12.2322 5.31857 1.34273
89 1 -1.1104 12.269 11.0042 0.976173
91 2 2.2208 10.8314 9.73394 2.39521
92 1 -1.1104 12.4283 5.59779 3.91928
93 1 -1.1104 12.1074 11.1045 3.94397
94 1 -1.1104 9.5458 8.3775 1.12841
95 2 2.2208 8.13243 7.01737 2.40096
96 2 2.2208 8.01303 12.5703 2.58787
97 1 -1.1104 9.59013 8.28989 3.87692
98 2 2.2208 8.08486 9.69389 5.49548
99 1 -1.1104 9.42495 5.51706 0.931024
100 1 -1.1104 9.5147 11.0375 1.13718
102 1 -1.1104 9.474 5.54282 3.90105
103 1 -1.1104 9.27861 11.2515 4.12937
237 1 -1.1104 6.68908 5.40564 6.81384
266 1 -1.1104 12.4153 5.45399 6.6821
267 1 -1.1104 9.39633 8.25698 6.93955
269 1 -1.1104 9.51972 5.348 6.80265
265 1 -1.1104 12.0399 8.31299 6.6014
53 2 2.2208 13.5008 9.71059 5.36191
90 1 -1.1104 12.2827 11.0967 6.72395
106 2 2.2208 5.13582 18.2086 5.1933
107 1 -1.1104 0.938072 13.8723 1.09881
109 1 -1.1104 1.15561 19.389 0.999704
113 1 -1.1104 1.02015 13.7662 3.8391
114 1 -1.1104 0.993027 19.4573 3.82827
116 1 -1.1104 0.941586 16.7774 0.96407
119 2 2.2208 5.0554 15.3005 2.48152
120 2 2.2208 5.21971 20.9083 2.35759
121 1 -1.1104 1.11396 16.5386 3.86449
123 1 -1.1104 3.65282 13.8752 0.962886
125 1 -1.1104 3.86588 19.4237 0.991062
127 2 2.2208 2.42687 18.1843 2.42099
128 1 -1.1104 3.73603 13.8511 3.82967
129 1 -1.1104 3.75669 19.634 3.71412
130 2 2.2208 2.52506 15.3189 5.23545
131 2 2.2208 2.4 21.0482 5.29533
132 1 -1.1104 3.69384 16.6602 1.11836
134 1 -1.1104 3.84332 16.7654 3.91845
110 1 -1.1104 6.44927 14.0186 1.13593
122 1 -1.1104 6.56018 16.7456 3.92023
140 1 -1.1104 6.59037 16.7307 1.08052
111 1 -1.1104 6.75233 13.8743 6.69215
108 1 -1.1104 0.964475 13.9853 6.71695
133 1 -1.1104 3.84734 16.7536 6.58366
117 1 -1.1104 1.16954 16.6582 6.78167
126 1 -1.1104 3.78281 19.6931 6.59459
124 1 -1.1104 3.96843 13.8692 6.57345
232 1 -1.1104 9.41515 13.9398 9.39872
139 1 -1.1104 6.54984 19.4436 3.82199
115 1 -1.1104 6.65706 14.0223 3.888
138 1 -1.1104 6.78891 19.3577 0.962324
112 1 -1.1104 6.51528 19.533 6.61588
141 2 2.2208 10.8103 18.1266 5.27733
142 1 -1.1104 12.1736 13.7312 1.01149
144 1 -1.1104 12.2454 19.4821 1.18669
146 1 -1.1104 12.1778 13.8596 3.8605
147 1 -1.1104 12.3458 19.472 3.86474
148 1 -1.1104 12.3573 16.72 1.12281
150 2 2.2208 10.7103 15.1756 2.51143
151 2 2.2208 10.9032 20.877 2.45844
152 1 -1.1104 12.2969 16.6215 3.84108
153 1 -1.1104 9.28519 13.804 0.948573
155 1 -1.1104 9.48202 19.5494 0.973217
157 2 2.2208 7.953 18.0312 2.45453
158 1 -1.1104 9.41616 13.9325 3.86245
159 1 -1.1104 9.47782 19.3309 3.81405
160 2 2.2208 7.98204 15.3425 5.32062
161 2 2.2208 8.04239 20.8644 5.27761
162 1 -1.1104 9.4011 16.5793 1.17639
164 1 -1.1104 9.4018 16.6562 3.95384
143 1 -1.1104 12.2202 13.8733 6.63982
149 1 -1.1104 12.2341 16.5443 6.57998
8930 2 2.2208 13.5656 15.1534 5.2555
135 1 -1.1104 12.2093 19.4578 9.49937
145 1 -1.1104 12.1225 19.4571 6.61043
163 1 -1.1104 9.36327 16.7922 6.78697
27 1 -1.1104 12.2038 14.0417 12.2715
156 1 -1.1104 9.31364 19.7083 6.61769
154 1 -1.1104 9.50074 14.0622 6.64319
166 1 -1.1104 0.966529 -2.96977 6.58704
173 1 -1.1104 3.89676 2.4848 6.75523
318 2 2.2208 5.26897 -1.34781 13.7117
9383 2 2.2208 13.641 18.0704 13.7075
8971 2 2.2208 -0.41976 20.6922 2.33469
175 2 2.2208 5.21042 1.22229 10.8324
176 1 -1.1104 0.960581 -3.07866 12.2585
177 1 -1.1104 1.08243 2.42682 12.043
180 1 -1.1104 1.11465 -2.92411 9.38977
181 1 -1.1104 1.05603 2.58794 9.45287
184 1 -1.1104 0.979921 -0.358431 12.2462
186 2 2.2208 5.28923 -1.54594 7.99871
187 2 2.2208 5.20162 4.02277 8.23613
188 1 -1.1104 1.12623 -0.27476 9.3512
190 1 -1.1104 3.87164 -2.83405 12.322
191 1 -1.1104 3.83073 2.73033 12.3143
192 2 2.2208 2.39097 1.25024 8.03078
193 1 -1.1104 3.98911 -2.9641 9.42239
194 1 -1.1104 3.73574 2.60809 9.56188
195 2 2.2208 2.39955 -1.66631 10.7606
197 1 -1.1104 3.81319 -0.0662861 12.2613
198 1 -1.1104 3.92204 -0.235973 9.28032
196 2 2.2208 2.44244 4.03092 10.9746
189 1 -1.1104 6.74953 -0.0442935 9.39648
183 1 -1.1104 6.72599 2.68918 9.41473
8448 2 2.2208 8.03783 -4.35673 8.07392
179 1 -1.1104 6.62887 2.66343 12.1569
185 1 -1.1104 6.69125 0.00521832 12.2161
332 2 2.2208 2.61311 -1.47767 -0.319089
201 2 2.2208 -0.18919 1.11848 10.7208
8862 2 2.2208 13.7861 18.0605 2.56199
206 1 -1.1104 12.225 2.67889 6.73723
207 1 -1.1104 12.2518 -0.0833139 6.55848
210 1 -1.1104 9.30253 -0.154561 6.64019
8445 2 2.2208 13.66 -4.50033 2.5353
137 2 2.2208 10.8692 15.4405 8.00526
178 1 -1.1104 6.54767 -2.90212 12.1617
8964 2 2.2208 13.7044 3.98506 10.9314
8450 2 2.2208 13.7132 -4.44192 8.096
322 2 2.2208 10.8715 4.06933 13.6678
182 1 -1.1104 6.75836 -2.74518 9.35772
211 2 2.2208 10.8476 1.33096 10.8766
212 1 -1.1104 12.34 -2.93902 12.4294
213 1 -1.1104 12.3603 2.65428 12.2175
214 1 -1.1104 12.1457 -2.92492 9.6586
215 1 -1.1104 12.2556 2.57366 9.43185
216 1 -1.1104 12.2653 -0.176529 12.1775
217 2 2.2208 10.7647 -1.59271 8.16127
218 2 2.2208 10.8346 4.00277 8.08449
219 1 -1.1104 12.2725 -0.0986004 9.39585
220 1 -1.1104 9.53391 -2.77854 12.1347
221 1 -1.1104 9.36919 2.61339 12.2282
222 2 2.2208 7.98055 1.13457 8.04636
223 1 -1.1104 9.5412 -3.17791 9.3691
224 1 -1.1104 9.56506 2.65064 9.41778
225 2 2.2208 7.9791 -1.48221 10.8231
227 1 -1.1104 9.57234 -0.0628586 12.319
228 1 -1.1104 9.54224 -0.16424 9.49268
226 2 2.2208 8.21655 4.03971 10.8463
321 2 2.2208 8.17175 1.28114 13.595
314 1 -1.1104 9.48923 16.7615 9.52368
204 2 2.2208 -0.354197 -4.37444 10.8703
25 2 2.2208 13.6465 15.2656 10.8631
234 1 -1.1104 1.18367 8.32693 6.72944
82 2 2.2208 -0.358544 9.60517 2.45968
240 2 2.2208 5.22274 6.86628 10.9513
241 2 2.2208 5.05589 12.535 10.887
242 1 -1.1104 1.04363 8.30143 12.1742
244 1 -1.1104 0.990923 8.37546 9.50471
246 1 -1.1104 1.17956 5.62516 12.1439
247 1 -1.1104 0.989873 11.1455 12.2749
250 2 2.2208 5.18076 9.69872 8.10874
251 1 -1.1104 1.11724 5.3847 9.55429
252 1 -1.1104 1.00989 11.191 9.51245
255 1 -1.1104 3.9502 8.3244 12.1914
256 2 2.2208 2.46786 6.72975 8.09653
257 2 2.2208 2.40742 12.4243 8.01382
258 1 -1.1104 3.94626 8.35057 9.43745
259 2 2.2208 2.45223 9.64931 10.8472
260 1 -1.1104 3.95294 5.41923 12.1407
261 1 -1.1104 3.77472 11.1317 12.23
262 1 -1.1104 3.90837 5.41681 9.48407
263 1 -1.1104 3.80452 11.161 9.40979
245 1 -1.1104 6.62742 8.26215 9.57221
243 1 -1.1104 6.6495 8.35177 12.311
253 1 -1.1104 6.65537 5.37393 9.64051
254 1 -1.1104 6.69559 11.1382 9.43793
249 1 -1.1104 6.61597 11.0611 12.3785
323 2 2.2208 2.50556 6.79617 13.599
9121 2 2.2208 -0.339292 -1.55138 2.36834
101 1 -1.1104 9.54853 11.0865 6.71055
202 1 -1.1104 9.29269 14.019 12.3598
248 1 -1.1104 6.82542 5.46623 12.3454
52 2 2.2208 13.6415 6.8472 7.99721
451 2 2.2208 2.45694 12.551 13.6417
264 1 -1.1104 9.49239 11.0981 9.56746
268 1 -1.1104 9.59752 5.32995 9.53648
270 1 -1.1104 9.49394 11.1973 12.335
271 1 -1.1104 9.58934 5.42799 12.2457
272 2 2.2208 8.04606 9.68945 10.8995
273 1 -1.1104 9.44522 8.2329 9.56658
274 2 2.2208 8.05819 12.5617 8.12921
275 2 2.2208 8.04667 6.7849 8.26917
276 2 2.2208 10.8302 6.96286 10.7711
277 2 2.2208 10.8239 12.6079 10.9258
278 1 -1.1104 12.093 8.18099 12.2184
279 1 -1.1104 12.3043 8.14432 9.44695
280 1 -1.1104 12.3437 5.3251 12.3894
281 1 -1.1104 12.3329 11.1915 12.2245
282 2 2.2208 10.9006 9.65744 8.1229
283 1 -1.1104 12.3357 5.53028 9.41347
284 1 -1.1104 12.2727 11.101 9.42962
285 1 -1.1104 9.37296 8.331 12.3807
325 2 2.2208 7.96303 12.6783 13.676
317 2 2.2208 7.99552 15.3334 10.8471
136 1 -1.1104 12.2834 16.7863 12.2915
316 2 2.2208 7.95145 20.8218 10.9213
233 1 -1.1104 9.34456 19.5549 9.55886
105 1 -1.1104 12.2202 13.8343 9.44787
297 1 -1.1104 6.59515 13.9463 12.1974
118 1 -1.1104 6.63726 16.7193 6.6583
302 1 -1.1104 0.880837 19.4059 6.52969
289 1 -1.1104 6.63706 16.866 9.56252
286 1 -1.1104 4.00019 19.5511 12.2251
287 1 -1.1104 3.75432 14.0147 12.3791
291 1 -1.1104 1.11764 19.5901 9.24978
292 1 -1.1104 1.1067 16.654 9.54241
293 2 2.2208 5.21334 20.9548 8.03966
294 1 -1.1104 1.11619 13.9682 9.4518
295 2 2.2208 5.21003 15.3261 7.97128
298 1 -1.1104 1.13089 19.4883 12.2004
299 1 -1.1104 1.02689 13.9019 12.3147
300 2 2.2208 5.17424 18.1972 10.7838
301 1 -1.1104 3.87494 19.6628 9.43875
303 2 2.2208 2.46383 18.1035 7.97825
304 1 -1.1104 3.84143 16.8516 9.37829
305 1 -1.1104 3.80681 13.9185 9.38104
307 1 -1.1104 0.979906 16.8085 12.405
308 1 -1.1104 3.88063 16.7381 12.2188
309 2 2.2208 2.46413 20.9569 10.8704
310 2 2.2208 2.37561 15.2871 10.8645
306 1 -1.1104 6.53767 16.6346 12.3392
288 1 -1.1104 6.64083 19.6614 9.42278
290 1 -1.1104 6.63685 13.9571 9.43255
200 2 2.2208 -0.394087 -1.6904 7.96491
311 1 -1.1104 12.3912 16.7048 9.40666
104 1 -1.1104 12.2869 19.4703 12.2635
327 2 2.2208 10.9019 15.4121 13.7133
315 1 -1.1104 9.37024 16.79 12.261
231 2 2.2208 7.97179 18.1655 8.15961
165 2 2.2208 10.7348 20.9764 8.20465
26 2 2.2208 10.8439 18.0721 10.8613
296 1 -1.1104 6.64607 19.3242 12.2436
340 2 2.2208 -0.207091 12.408 -0.41489
514 2 2.2208 5.121 20.8288 13.7352
8534 2 2.2208 10.9902 -4.31966 -0.280545
513 2 2.2208 2.3427 18.114 13.6341
9136 2 2.2208 -0.323592 1.36495 -0.420311
8460 2 2.2208 8.02626 -4.3071 13.6526
414 2 2.2208 10.8747 -1.54235 13.6118
319 2 2.2208 2.50263 1.35757 13.5281
339 2 2.2208 5.19542 12.5362 -0.313682
341 2 2.2208 8.01296 9.78101 -0.340628
9127 2 2.2208 13.569 15.2269 -0.280543
330 2 2.2208 5.19156 17.9386 -0.30964
381 2 2.2208 -0.438923 -1.45682 13.7127
343 2 2.2208 5.3729 1.32529 16.3434
344 1 -1.1104 1.10675 -2.81343 17.8307
345 1 -1.1104 0.978616 2.66499 17.9602
348 1 -1.1104 1.01629 -2.81051 15.0755
350 1 -1.1104 1.13831 2.46921 15.2149
356 1 -1.1104 1.14331 -0.102123 17.9564
358 2 2.2208 5.37374 -1.45291 19.1548
359 2 2.2208 5.26569 4.06204 19.3383
360 1 -1.1104 1.08694 -0.217776 15.2107
364 1 -1.1104 3.9205 -2.88718 17.7358
365 1 -1.1104 3.83179 2.70989 17.9805
366 2 2.2208 2.53097 1.26757 19.2849
367 1 -1.1104 3.90318 -2.87458 15.0829
369 1 -1.1104 4.01192 2.71256 14.9801
371 2 2.2208 2.54594 -1.55215 16.3517
373 1 -1.1104 4.09685 0.0260848 17.8164
374 1 -1.1104 3.93027 -0.0510257 15.0688
372 2 2.2208 2.39892 4.10513 16.4423
357 1 -1.1104 6.88798 -0.186643 17.8798
375 1 -1.1104 4.03512 -0.0139352 20.7032
352 1 -1.1104 6.79105 -2.87821 14.8386
347 1 -1.1104 6.68129 2.6546 17.8225
362 1 -1.1104 6.81235 -0.122445 15.0846
370 1 -1.1104 3.81404 2.69536 20.7455
9388 2 2.2208 13.7453 20.7985 27.7165
573 1 -1.1104 12.1348 16.5331 26.3421
379 2 2.2208 -0.203923 1.14456 16.4893
8646 2 2.2208 -0.274469 -4.36325 16.4426
354 1 -1.1104 6.93436 2.68621 14.9959
346 1 -1.1104 6.75853 -2.96514 17.5672
386 2 2.2208 10.9531 1.21189 16.499
387 1 -1.1104 12.2535 2.61868 17.961
388 1 -1.1104 12.1838 -2.99776 15.5355
389 1 -1.1104 12.3098 2.72819 15.143
391 1 -1.1104 12.3628 -0.298601 17.9006
392 2 2.2208 10.7796 -1.44427 19.2704
393 2 2.2208 10.9064 4.08061 19.2772
394 1 -1.1104 12.3786 -0.151356 15.0609
396 1 -1.1104 9.71569 -3.17062 18.0002
397 1 -1.1104 9.70443 2.70596 17.8872
398 2 2.2208 7.97573 1.39682 19.3284
399 1 -1.1104 9.64961 -2.95195 15.1301
401 1 -1.1104 9.67213 2.71704 15.1051
403 2 2.2208 8.18659 -1.58572 16.3624
405 1 -1.1104 9.54577 -0.156861 17.8344
406 1 -1.1104 9.60123 -0.0796625 15.0759
404 2 2.2208 8.1602 4.03684 16.5365
407 1 -1.1104 9.59921 -0.126596 20.7231
400 1 -1.1104 10.0555 -2.96315 20.8008
574 1 -1.1104 9.4555 13.8226 23.5502
9168 2 2.2208 13.7129 4.08524 16.4267
8563 2 2.2208 5.34694 -4.25481 21.9517
363 1 -1.1104 6.87193 -0.113785 20.7113
8608 2 2.2208 2.49411 -4.31713 19.3255
353 1 -1.1104 6.86996 -2.75929 20.4572
416 2 2.2208 5.34398 6.90003 16.5854
417 2 2.2208 5.14053 12.3467 16.5439
418 1 -1.1104 1.06713 8.46915 17.8476
420 1 -1.1104 1.25082 8.3741 15.0103
424 1 -1.1104 1.09329 5.54281 17.9246
425 1 -1.1104 1.0492 11.1295 17.8061
428 2 2.2208 5.14952 9.62625 19.4082
429 1 -1.1104 1.27159 5.70407 15.299
431 1 -1.1104 1.09342 11.0436 15.0772
437 1 -1.1104 3.91839 8.32162 17.8579
438 2 2.2208 2.5233 7.03988 19.271
439 2 2.2208 2.47331 12.4454 19.3905
440 1 -1.1104 3.85208 8.23232 15.0646
442 2 2.2208 2.45398 9.77931 16.4919
443 1 -1.1104 3.90765 5.65665 17.8373
444 1 -1.1104 3.78824 11.0518 17.9907
445 1 -1.1104 4.03482 5.52766 15.0213
447 1 -1.1104 3.84154 11.0645 15.1601
426 1 -1.1104 6.8511 5.42116 17.8525
446 1 -1.1104 3.9391 5.52704 20.693
434 1 -1.1104 6.56743 5.42506 20.8243
441 1 -1.1104 3.84017 8.31973 20.7304
419 1 -1.1104 6.64509 8.25239 17.9798
422 1 -1.1104 6.7111 8.29316 15.3255
435 1 -1.1104 6.61413 11.0087 15.136
433 1 -1.1104 6.6981 5.44676 15.0732
436 1 -1.1104 6.80203 10.9232 20.7114
448 1 -1.1104 3.86894 11.051 20.7282
8606 2 2.2208 8.14614 -4.34637 19.2424
409 2 2.2208 13.6744 12.5447 19.2101
427 1 -1.1104 6.54906 11.0013 17.9407
410 2 2.2208 13.6414 6.94914 19.3259
454 2 2.2208 11.064 6.84901 16.4528
455 2 2.2208 10.7659 12.5299 16.5536
456 1 -1.1104 12.3392 8.42055 17.757
457 1 -1.1104 12.3513 8.25581 14.9988
459 1 -1.1104 12.3599 5.44474 17.8567
460 1 -1.1104 12.2354 11.1192 17.8137
461 2 2.2208 10.8496 9.7099 19.1861
462 1 -1.1104 12.3022 5.45172 15.1883
464 1 -1.1104 12.2136 11.0489 15.1058
466 1 -1.1104 9.5076 8.30662 17.9464
467 2 2.2208 8.1875 6.91258 19.2378
468 2 2.2208 8.11413 12.5185 19.4204
469 1 -1.1104 9.50709 8.43969 15.271
471 2 2.2208 8.06526 9.74228 16.6123
472 1 -1.1104 9.60478 5.54039 17.8256
473 1 -1.1104 9.33263 11.0879 17.9924
474 1 -1.1104 9.49798 5.56868 14.9751
476 1 -1.1104 9.40285 11.2684 15.0704
477 1 -1.1104 9.61219 11.147 20.798
475 1 -1.1104 9.39742 5.35439 20.78
458 1 -1.1104 12.3031 8.23008 20.6319
470 1 -1.1104 9.52068 8.24969 20.8437
8536 2 2.2208 2.48039 -4.32659 24.9682
463 1 -1.1104 12.1437 5.51863 20.6806
465 1 -1.1104 12.5137 11.0573 20.567
413 2 2.2208 8.08393 20.9582 22.0646
479 2 2.2208 5.23062 18.1254 16.5922
480 1 -1.1104 1.04561 13.866 17.9525
481 1 -1.1104 0.97233 19.6613 17.9433
484 1 -1.1104 1.10991 13.9487 15.2201
486 1 -1.1104 0.963238 19.6572 15.1706
492 1 -1.1104 1.17452 16.8071 17.7681
494 2 2.2208 5.2035 15.2122 19.3392
495 2 2.2208 5.3079 20.9609 19.2945
496 1 -1.1104 1.15903 16.6782 15.0559
500 1 -1.1104 3.9335 13.7737 18.0315
501 1 -1.1104 3.87208 19.4788 17.8835
502 2 2.2208 2.54244 18.1399 19.3319
503 1 -1.1104 3.92394 13.8288 15.2111
505 1 -1.1104 3.68732 19.5096 15.1057
507 2 2.2208 2.5326 15.3283 16.6036
508 2 2.2208 2.44636 20.9464 16.5297
509 1 -1.1104 3.88338 16.7085 17.8919
510 1 -1.1104 3.89046 16.7682 15.0162
487 1 -1.1104 1.01205 19.5146 20.6397
504 1 -1.1104 4.0341 13.8939 20.8714
490 1 -1.1104 6.65716 19.4932 15.0905
493 1 -1.1104 6.68591 16.6837 18.0567
482 1 -1.1104 6.66004 13.7879 18.0234
483 1 -1.1104 6.61097 19.5481 17.995
491 1 -1.1104 6.71112 19.5564 20.6886
497 1 -1.1104 1.22421 16.6233 20.7216
498 1 -1.1104 6.72215 16.764 15.1703
506 1 -1.1104 3.93773 19.4143 20.7623
489 1 -1.1104 6.86836 13.7251 20.8487
385 2 2.2208 8.13267 15.2527 22.1125
8564 2 2.2208 -0.442496 -4.37349 22.0437
488 1 -1.1104 6.76445 13.9643 15.1736
515 2 2.2208 10.899 18.1289 16.5619
516 1 -1.1104 12.2789 13.8977 17.8228
517 1 -1.1104 12.1897 19.6717 17.9247
518 1 -1.1104 12.3884 13.8753 15.1491
520 1 -1.1104 12.378 19.4564 15.159
522 1 -1.1104 12.3568 16.6475 17.8344
523 2 2.2208 10.7963 15.37 19.2538
524 2 2.2208 10.966 20.9585 19.3258
525 1 -1.1104 12.305 16.7249 15.2122
527 1 -1.1104 9.43623 13.9062 17.9397
528 1 -1.1104 9.50481 19.5512 17.9984
529 2 2.2208 8.12138 18.1106 19.4056
530 1 -1.1104 9.55295 14.1227 15.1561
532 1 -1.1104 9.5556 19.6037 15.1891
534 2 2.2208 8.13422 15.2973 16.4909
535 2 2.2208 8.01315 20.9573 16.5145
536 1 -1.1104 9.49853 16.6735 17.8126
537 1 -1.1104 9.53243 16.7455 15.1219
519 1 -1.1104 12.2212 13.9826 20.6376
9312 2 2.2208 13.7315 18.0704 19.1348
521 1 -1.1104 12.387 19.4751 20.6914
526 1 -1.1104 12.4592 16.7396 20.5915
538 1 -1.1104 9.67464 16.8995 20.809
368 1 -1.1104 3.9327 -2.80988 20.4844
361 1 -1.1104 1.16829 -0.0736883 20.7973
351 1 -1.1104 1.10402 2.73717 20.5888
660 2 2.2208 13.7256 12.5186 24.9521
8499 2 2.2208 8.05957 -4.1268 24.9736
349 1 -1.1104 1.20114 -2.72981 20.6773
543 2 2.2208 5.19617 1.27207 22.0759
544 1 -1.1104 1.08807 -2.89857 23.4099
545 1 -1.1104 1.01254 2.92697 23.4442
548 1 -1.1104 1.05172 -2.88135 26.2376
549 1 -1.1104 1.21522 2.87462 26.2793
552 1 -1.1104 1.15097 -0.0294296 23.6968
554 2 2.2208 5.2408 -1.45626 24.955
556 1 -1.1104 1.19485 0.0636445 26.3987
558 1 -1.1104 4.06487 -2.73144 23.4587
559 1 -1.1104 3.90304 2.67204 23.4805
560 2 2.2208 2.53642 1.39238 24.8118
561 1 -1.1104 3.81326 -2.9248 26.4122
562 1 -1.1104 3.80623 2.69089 26.2475
563 2 2.2208 2.47309 -1.42812 22.1066
564 2 2.2208 2.40494 4.21219 21.9951
565 1 -1.1104 3.8398 -0.0830413 23.445
566 1 -1.1104 3.94727 -0.00166387 26.155
555 2 2.2208 5.35909 4.08624 24.9534
546 1 -1.1104 6.705 -2.91969 23.2886
547 1 -1.1104 6.5972 2.66409 23.4522
557 1 -1.1104 6.82538 -0.0629845 26.2596
553 1 -1.1104 6.78601 -0.259563 23.4736
550 1 -1.1104 6.72082 -2.83818 26.2167
328 2 2.2208 5.25708 1.36643 27.7404
551 1 -1.1104 6.65228 2.70499 26.2177
9310 2 2.2208 13.8292 15.2761 16.4197
390 1 -1.1104 12.435 2.54345 20.6998
402 1 -1.1104 9.50462 2.62445 20.6528
395 1 -1.1104 12.3298 -0.412674 20.7306
577 2 2.2208 -0.245669 1.30619 22.0982
355 1 -1.1104 6.69065 2.6314 20.6661
376 2 2.2208 -0.323911 6.88866 22.0344
576 2 2.2208 -0.30732 -1.37308 24.901
579 2 2.2208 10.9308 1.22905 22.0239
580 1 -1.1104 12.2819 -2.99139 23.2512
581 1 -1.1104 12.3369 2.56475 23.4576
582 1 -1.1104 12.1989 -2.96014 26.2236
583 1 -1.1104 12.1418 2.64 26.3185
584 1 -1.1104 12.3784 -0.225247 23.593
585 2 2.2208 10.9256 -1.60996 25.0154
586 2 2.2208 10.9025 4.09099 24.8975
587 1 -1.1104 12.2746 -0.103799 26.3725
588 1 -1.1104 9.574 -2.97216 23.6104
589 1 -1.1104 9.55476 2.48831 23.3083
590 2 2.2208 8.07617 1.38597 24.7605
591 1 -1.1104 9.42965 -2.93849 26.3269
592 1 -1.1104 9.47108 2.63984 26.0752
593 2 2.2208 8.13943 -1.54003 22.0823
594 2 2.2208 8.10403 3.93445 22.1037
595 1 -1.1104 9.5459 -0.304757 23.4774
596 1 -1.1104 9.54423 -0.174335 26.3311
572 2 2.2208 -0.245268 4.22645 19.0982
9373 2 2.2208 13.7467 4.16465 22.0317
337 2 2.2208 5.29584 6.82618 27.8424
336 2 2.2208 8.18334 4.08395 27.67
333 2 2.2208 2.49888 4.06894 27.6812
383 1 -1.1104 9.32519 14.0646 26.2373
432 1 -1.1104 1.02847 11.0175 20.6351
423 1 -1.1104 6.72771 8.15198 20.7685
421 1 -1.1104 1.10467 8.23489 20.714
430 1 -1.1104 1.06554 5.57391 20.6074
608 2 2.2208 5.31486 6.97439 22.1621
609 2 2.2208 5.47244 12.4385 22.2286
610 1 -1.1104 0.856495 8.38831 23.448
612 1 -1.1104 1.08957 8.3424 26.3984
614 1 -1.1104 1.19252 5.60271 23.5188
615 1 -1.1104 0.949908 11.1884 23.4404
618 2 2.2208 5.10226 9.68615 25.0606
619 1 -1.1104 1.01935 5.56176 26.2918
620 1 -1.1104 1.07604 11.0843 26.2422
623 1 -1.1104 3.66317 8.26522 23.5266
624 2 2.2208 2.5152 6.89582 24.9405
625 2 2.2208 2.50043 12.4838 24.8916
626 1 -1.1104 3.76469 8.19349 26.5191
627 2 2.2208 2.36459 9.63765 22.0567
628 1 -1.1104 3.89832 5.63118 23.4792
629 1 -1.1104 3.83306 11.0507 23.5491
630 1 -1.1104 3.97086 5.5387 26.4341
631 1 -1.1104 3.76047 10.979 26.3734
616 1 -1.1104 6.75932 5.38197 23.5607
622 1 -1.1104 6.55184 11.0444 26.2276
380 2 2.2208 -0.29048 -1.62762 19.3106
611 1 -1.1104 6.67742 8.14613 23.5681
617 1 -1.1104 6.71422 11.0003 23.4273
621 1 -1.1104 6.74251 5.44948 26.2228
613 1 -1.1104 6.71149 8.14618 26.4692
338 2 2.2208 2.40624 9.67917 27.6632
601 1 -1.1104 9.54506 19.8963 23.5083
9174 2 2.2208 13.8372 1.27861 19.3602
662 2 2.2208 13.6594 6.73484 24.8973
639 1 -1.1104 9.34745 11.0501 26.2835
640 1 -1.1104 9.63677 5.55371 26.2446
641 1 -1.1104 9.52641 10.9297 23.4713
642 1 -1.1104 9.53795 5.36921 23.5446
643 2 2.2208 8.08336 9.5512 22.2028
644 1 -1.1104 9.38013 8.28972 26.2343
645 2 2.2208 8.1216 12.5285 24.9776
646 2 2.2208 8.01502 6.91862 24.9322
647 2 2.2208 10.9164 6.87231 22.1235
648 2 2.2208 10.9663 12.5228 22.1698
649 1 -1.1104 12.2155 8.23943 23.521
650 1 -1.1104 12.1024 8.30119 26.3364
651 1 -1.1104 12.371 5.38922 23.6219
652 1 -1.1104 12.3868 11.0839 23.4785
653 2 2.2208 10.7801 9.57359 24.8752
654 1 -1.1104 12.3775 5.41961 26.4407
655 1 -1.1104 12.1961 11.17 26.2838
656 1 -1.1104 9.43628 8.22338 23.5064
377 2 2.2208 13.6772 9.70455 22.1282
342 2 2.2208 10.6618 12.3783 27.7742
657 2 2.2208 10.8538 6.88392 27.65
638 1 -1.1104 12.2404 16.648 23.4741
384 1 -1.1104 9.50708 19.6657 26.2715
511 1 -1.1104 3.9596 16.6968 20.6477
499 1 -1.1104 6.89703 16.7653 20.818
485 1 -1.1104 1.30754 13.8492 20.6795
9351 2 2.2208 -0.45229 20.9244 19.2169
673 1 -1.1104 6.74628 13.9564 23.5995
575 1 -1.1104 6.67315 16.6286 23.3911
666 1 -1.1104 6.74042 16.7216 26.32
567 2 2.2208 2.59658 15.1839 22.0744
568 2 2.2208 2.40245 20.9869 22.1358
569 1 -1.1104 3.99284 16.5889 23.3658
571 1 -1.1104 1.08124 16.561 23.4588
599 1 -1.1104 3.72219 13.8414 26.37
632 1 -1.1104 3.71559 16.6208 26.261
633 2 2.2208 2.38701 18.0876 24.8273
634 1 -1.1104 3.77298 19.3147 26.272
635 2 2.2208 5.35387 18.1196 21.9931
658 1 -1.1104 1.00901 13.8144 23.3974
659 1 -1.1104 1.13611 19.3192 23.3084
663 1 -1.1104 3.91563 19.4524 23.4653
665 1 -1.1104 3.93234 13.7885 23.7898
667 1 -1.1104 0.935502 19.5062 26.135
668 1 -1.1104 1.1264 16.7683 26.2027
669 1 -1.1104 1.0829 13.8711 26.3556
671 2 2.2208 5.17971 20.7977 25.0112
672 2 2.2208 5.25565 15.3792 24.9467
670 1 -1.1104 6.73579 19.5221 23.6755
329 2 2.2208 2.32639 15.3075 27.6376
664 1 -1.1104 6.52143 13.9206 26.4384
542 2 2.2208 10.9347 17.9571 27.8653
533 1 -1.1104 9.59793 19.6463 20.802
606 1 -1.1104 12.2636 13.9891 26.3197
478 2 2.2208 10.9218 15.3362 24.9089
452 2 2.2208 10.8526 21.068 24.9952
415 1 -1.1104 9.40786 16.8315 23.4805
607 1 -1.1104 12.1565 19.3271 26.3315
603 1 -1.1104 6.77252 19.5049 26.3337
412 2 2.2208 8.11019 15.4019 27.6907
600 1 -1.1104 12.3526 13.8227 23.5862
449 1 -1.1104 9.49705 16.7869 26.4582
602 2 2.2208 8.12612 18.2275 24.9818
531 1 -1.1104 9.49946 13.9793 20.6552
9167 2 2.2208 13.7514 18.1332 24.8896
411 2 2.2208 13.8564 15.3479 22.0461
605 1 -1.1104 12.3731 19.4972 23.4701
578 2 2.2208 10.8589 18.2036 22.1131
9385 2 2.2208 13.7259 20.8842 22.0245
661 2 2.2208 13.6835 9.46778 27.6135
335 2 2.2208 8.0651 20.8394 27.7862
539 2 2.2208 10.9302 20.7766 13.7938
541 2 2.2208 7.97793 18.0117 13.7425
331 2 2.2208 2.44147 20.721 27.6418
597 2 2.2208 10.9338 1.17361 27.8344
598 2 2.2208 8.06784 -1.40994 27.71
320 2 2.2208 5.36171 4.15205 13.7221
8457 2 2.2208 5.34321 -4.26429 27.7313
324 2 2.2208 5.27309 9.59826 13.7734
408 2 2.2208 13.6959 12.4723 13.7455
326 2 2.2208 8.06436 6.88694 13.773
8603 2 2.2208 -0.324922 -4.43279 27.7219
512 2 2.2208 5.18381 15.4438 13.7351
453 2 2.2208 10.7736 9.64881 13.7172
8463 2 2.2208 2.4971 -4.36216 13.7432
674 2 2.2208 5.23495 23.7841 5.13591
675 2 2.2208 5.2894 29.4241 5.11346
676 1 -1.1104 0.930062 24.9537 1.12141
677 1 -1.1104 0.995361 25.0258 3.85163
678 1 -1.1104 1.08082 21.9728 0.981485
679 1 -1.1104 1.11577 27.9781 1.02853
680 2 2.2208 5.29735 26.5854 2.27301
681 1 -1.1104 1.23235 22.3512 3.81419
682 1 -1.1104 1.16457 27.8665 3.99174
683 1 -1.1104 3.94343 25.2065 0.963126
684 2 2.2208 2.40073 23.8177 2.40767
685 2 2.2208 2.373 29.448 2.45429
686 1 -1.1104 3.81686 25.1915 3.75462
687 2 2.2208 2.3444 26.4564 5.25437
688 1 -1.1104 3.86368 22.4399 0.998348
689 1 -1.1104 3.77814 28.0007 1.01117
690 1 -1.1104 3.96134 22.4217 3.87584
691 1 -1.1104 3.94594 27.7814 3.90904
698 1 -1.1104 6.72652 27.9602 0.971022
700 1 -1.1104 6.61047 28.1003 3.62846
823 1 -1.1104 3.89792 27.7984 6.75766
695 1 -1.1104 6.67973 25.0502 0.984419
697 1 -1.1104 6.61575 22.2785 1.05269
699 1 -1.1104 6.71019 22.242 3.7347
696 1 -1.1104 6.50314 25.2459 3.87894
815 1 -1.1104 1.05355 25.167 6.72504
817 1 -1.1104 1.11426 22.3563 6.67783
819 1 -1.1104 6.67844 22.2957 6.50702
820 1 -1.1104 6.64148 28.0972 6.53619
822 1 -1.1104 3.86526 22.4327 6.5237
901 2 2.2208 -0.29134 37.7571 7.7992
701 2 2.2208 11.0076 23.7156 5.07612
702 2 2.2208 10.9631 29.1229 5.33337
703 1 -1.1104 12.2178 25.195 1.14783
704 1 -1.1104 12.2558 25.0933 3.94783
705 1 -1.1104 12.3961 22.4385 1.01826
706 1 -1.1104 12.4138 28.0185 1.05776
707 2 2.2208 11.0346 26.6912 2.49582
708 1 -1.1104 12.1725 22.1456 3.81682
709 1 -1.1104 12.388 27.9513 3.93512
710 1 -1.1104 9.49953 25.1429 0.784031
711 2 2.2208 7.99498 23.583 2.46008
712 2 2.2208 8.14008 29.3719 2.4461
713 1 -1.1104 9.36689 24.9395 3.96334
714 2 2.2208 7.97842 26.7145 5.08137
715 1 -1.1104 9.48151 22.3257 0.991387
716 1 -1.1104 9.50249 27.9459 1.12899
717 1 -1.1104 9.36646 22.2106 3.78041
718 1 -1.1104 9.51348 27.9113 3.83313
852 1 -1.1104 9.35852 27.6868 6.57219
850 1 -1.1104 12.4828 27.9394 6.55427
848 1 -1.1104 12.2535 24.9734 6.56401
816 1 -1.1104 6.79006 25.2279 6.74168
849 1 -1.1104 12.2972 22.1047 6.72025
1584 1 -1.1104 12.2636 47.6676 12.3722
721 2 2.2208 13.7047 26.3416 5.41765
1577 1 -1.1104 9.4486 47.5545 6.70759
1394 1 -1.1104 12.1864 47.701 3.91436
1327 2 2.2208 5.12972 46.1325 -0.454603
723 2 2.2208 5.19721 34.9006 5.27304
724 1 -1.1104 1.02514 30.6324 1.01788
725 1 -1.1104 1.00134 36.3948 1.13088
727 1 -1.1104 1.18409 30.6724 3.83291
728 1 -1.1104 1.0164 36.2848 3.72954
730 1 -1.1104 1.05648 33.481 0.852485
731 2 2.2208 5.17425 32.1227 2.41947
732 2 2.2208 5.23928 37.773 2.49478
733 1 -1.1104 0.997746 33.4361 3.94242
735 1 -1.1104 3.74674 30.7119 1.01376
736 1 -1.1104 3.86207 36.1203 0.876046
737 2 2.2208 2.30024 34.7532 2.447
738 1 -1.1104 3.77398 30.8264 3.88118
739 1 -1.1104 3.90425 36.2585 3.75809
740 2 2.2208 2.48529 32.1982 5.28529
741 2 2.2208 2.44996 37.641 5.09287
742 1 -1.1104 3.73018 33.347 1.10792
743 1 -1.1104 3.77486 33.4965 3.84981
869 1 -1.1104 1.00985 30.7591 6.64627
746 1 -1.1104 6.69159 30.7457 1.1398
877 1 -1.1104 3.78174 33.5217 6.85136
870 1 -1.1104 0.85141 36.2272 6.50016
875 1 -1.1104 3.78787 30.7381 6.55927
734 1 -1.1104 6.60609 33.7066 3.8549
748 1 -1.1104 6.66756 33.4829 1.02837
747 1 -1.1104 6.47235 30.8904 3.77653
876 1 -1.1104 3.73291 36.288 6.56752
873 1 -1.1104 0.892966 33.6108 6.80308
871 1 -1.1104 6.70946 30.6851 6.67677
729 1 -1.1104 6.73713 36.4231 3.90533
726 1 -1.1104 6.62048 36.3067 0.97062
872 1 -1.1104 6.61344 36.2446 6.61755
874 1 -1.1104 6.66517 33.4335 6.72815
749 2 2.2208 10.9556 34.8976 5.1627
750 1 -1.1104 12.1953 30.6707 1.11425
751 1 -1.1104 12.4035 36.3288 1.09975
752 1 -1.1104 12.2813 30.5738 3.91327
753 1 -1.1104 12.3363 36.3479 3.94444
754 1 -1.1104 12.3611 33.4678 1.06478
755 2 2.2208 10.8903 32.1181 2.44997