ITEM: TIMESTEP
100000
ITEM: NUMBER OF ATOMS
17820
ITEM: BOX BOUNDS pp pp pp
-3.5598475441934724e-01 2.7695984754419651e+01
-4.4810430305819162e+00 3.3256104303057606e+02
-3.5312237311832589e-01 2.7693122373118694e+01
ITEM: ATOMS id type q x y z
1 2 2.2208 5.35605 1.20038 5.33771
2 1 -1.1104 1.03986 -2.81494 0.969791
3 1 -1.1104 1.12386 2.65062 0.900076
6 1 -1.1104 1.02017 -3.07761 3.78175
7 1 -1.1104 1.2289 2.63657 3.73508
10 1 -1.1104 1.02877 -0.0515661 1.03699
12 2 2.2208 5.35537 -1.69002 2.47345
13 2 2.2208 5.37348 3.89026 2.44872
14 1 -1.1104 1.03211 -0.165227 3.87078
16 1 -1.1104 3.92147 -3.07881 1.03665
17 1 -1.1104 3.93162 2.59432 1.06162
18 2 2.2208 2.44657 1.16102 2.53235
19 1 -1.1104 3.929 -3.05022 3.91685
20 1 -1.1104 4.01181 2.44925 3.9224
21 2 2.2208 2.44151 -1.6264 5.1066
22 2 2.2208 2.44833 4.03438 5.21852
23 1 -1.1104 4.03406 -0.147016 1.25209
24 1 -1.1104 3.9286 -0.318374 3.87018
9121 2 2.2208 -0.409877 -1.46213 2.41801
337 2 2.2208 5.33329 6.8414 -0.265179
8457 2 2.2208 5.22704 -4.48491 -0.323614
8442 2 2.2208 -0.362982 -4.34664 5.28692
8440 2 2.2208 2.51891 -4.30253 2.55167
4 1 -1.1104 6.68725 -3.09546 1.05572
8 1 -1.1104 6.66903 -2.94944 3.79901
5 1 -1.1104 6.73392 2.54851 1.02292
11 1 -1.1104 6.86299 -0.365541 1.02797
15 1 -1.1104 6.71497 -0.185468 3.80002
9 1 -1.1104 6.62116 2.58798 3.83361
31 2 2.2208 10.8651 1.23873 5.35198
32 1 -1.1104 12.1729 -2.93908 0.906017
33 1 -1.1104 12.3061 2.6088 1.00104
34 1 -1.1104 12.3388 -2.97146 3.69464
35 1 -1.1104 12.2565 2.45572 3.85641
36 1 -1.1104 12.2826 -0.283255 0.987134
37 2 2.2208 10.7113 -1.70139 2.4948
38 2 2.2208 10.8738 3.99391 2.43216
39 1 -1.1104 12.2981 -0.265495 3.8317
40 1 -1.1104 9.33679 -3.11131 0.98064
41 1 -1.1104 9.45327 2.51933 1.17454
42 2 2.2208 8.11607 1.09846 2.43392
43 1 -1.1104 9.42065 -2.977 3.8405
44 1 -1.1104 9.33339 2.65515 3.94755
45 2 2.2208 8.0654 -1.49792 5.29082
46 2 2.2208 8.13629 3.99039 5.29615
47 1 -1.1104 9.56213 -0.275791 1.01602
48 1 -1.1104 9.55897 -0.2457 3.73668
205 1 -1.1104 12.1614 -3.11802 6.81538
8444 2 2.2208 10.7853 -4.44018 5.35448
8835 2 2.2208 -0.332773 20.9218 8.0817
317 2 2.2208 8.10953 15.2243 10.9165
208 1 -1.1104 9.43632 -3.14323 6.79059
339 2 2.2208 5.33969 12.4091 -0.458383
8443 2 2.2208 7.95459 -4.49586 2.51429
8448 2 2.2208 8.00315 -4.41356 8.16571
54 2 2.2208 5.245 6.86766 5.26017
55 2 2.2208 5.24841 12.4471 5.2941
56 1 -1.1104 1.13976 8.15796 1.04837
58 1 -1.1104 1.11318 8.23708 3.78721
60 1 -1.1104 1.09911 5.44617 1.20508
61 1 -1.1104 1.20855 11.0228 1.12784
66 2 2.2208 5.22574 9.59319 2.48034
67 1 -1.1104 1.06385 5.49813 3.94169
68 1 -1.1104 1.07405 11.1242 3.90363
71 1 -1.1104 3.7718 8.23138 1.03723
72 2 2.2208 2.54649 6.85833 2.50421
73 2 2.2208 2.56538 12.4666 2.43983
74 1 -1.1104 3.89366 8.2783 3.94868
75 2 2.2208 2.36282 9.55846 5.2326
76 1 -1.1104 4.02937 5.45188 1.04985
77 1 -1.1104 3.96185 11.1867 1.0299
79 1 -1.1104 3.8522 5.35306 3.84852
80 1 -1.1104 3.99704 11.1138 3.82739
65 1 -1.1104 6.53776 11.1314 6.73562
70 1 -1.1104 6.70687 10.9272 3.83456
69 1 -1.1104 6.73805 5.42508 3.84685
57 1 -1.1104 6.59515 8.18489 1.24684
63 1 -1.1104 6.83877 5.3493 1.07712
8446 2 2.2208 2.436 -4.38123 8.00852
657 2 2.2208 10.7658 6.93238 -0.429167
239 1 -1.1104 3.80948 5.54538 6.69817
236 1 -1.1104 1.04256 5.3138 6.47681
234 1 -1.1104 0.953978 8.15454 6.56326
238 1 -1.1104 3.70784 8.31049 6.88049
312 2 2.2208 -0.317643 18.179 10.8752
8449 2 2.2208 10.8601 -4.5201 10.8718
64 1 -1.1104 6.71151 11.051 1.0265
59 1 -1.1104 6.73302 8.13203 4.00191
84 2 2.2208 10.887 6.83392 5.29528
85 2 2.2208 10.9586 12.5144 5.40624
86 1 -1.1104 12.2486 8.37449 0.906741
87 1 -1.1104 12.2806 8.1097 3.73437
88 1 -1.1104 12.2569 5.45987 1.10302
89 1 -1.1104 12.2262 11.0913 1.11647
91 2 2.2208 10.8988 9.57484 2.52603
92 1 -1.1104 12.4242 5.2613 3.89399
93 1 -1.1104 12.3916 11.0531 3.8874
94 1 -1.1104 9.38162 8.20492 0.976969
95 2 2.2208 8.11681 6.83059 2.51826
96 2 2.2208 8.13503 12.379 2.44967
97 1 -1.1104 9.6243 8.13706 3.94472
98 2 2.2208 8.01889 9.64994 5.27162
99 1 -1.1104 9.67643 5.36453 1.08815
100 1 -1.1104 9.34615 10.9611 1.22927
102 1 -1.1104 9.63865 5.39544 3.93208
103 1 -1.1104 9.57164 11.0413 3.85444
235 1 -1.1104 6.53076 8.27649 6.68147
90 1 -1.1104 12.0954 11.0133 6.74547
137 2 2.2208 10.7568 15.3588 8.20128
315 1 -1.1104 9.4307 16.7545 12.3864
237 1 -1.1104 6.54173 5.49105 6.59726
267 1 -1.1104 9.6042 8.18196 6.71935
149 1 -1.1104 12.4536 16.5452 6.97348
8441 2 2.2208 5.256 -4.44954 5.31622
25 2 2.2208 13.7513 15.2551 10.8602
156 1 -1.1104 9.57123 19.5487 6.68268
106 2 2.2208 5.20257 18.0209 5.40635
107 1 -1.1104 1.10241 13.7837 1.19579
109 1 -1.1104 1.12375 19.3452 1.15437
113 1 -1.1104 1.08055 13.8485 3.99518
114 1 -1.1104 1.08665 19.5111 3.83945
116 1 -1.1104 1.00328 16.6022 1.16795
119 2 2.2208 5.31224 15.3104 2.38598
120 2 2.2208 5.41227 20.78 2.62537
121 1 -1.1104 0.992178 16.6546 3.89147
123 1 -1.1104 3.92411 13.8265 1.10249
125 1 -1.1104 3.89475 19.3602 1.18812
127 2 2.2208 2.37328 18.0168 2.5363
128 1 -1.1104 3.84053 13.8209 3.92755
129 1 -1.1104 3.98559 19.3676 3.91069
130 2 2.2208 2.54246 15.2131 5.19464
131 2 2.2208 2.40648 20.8182 5.26945
132 1 -1.1104 3.80917 16.5935 1.15306
134 1 -1.1104 3.95157 16.5633 3.90183
124 1 -1.1104 4.02211 14.0236 6.5871
108 1 -1.1104 1.22234 13.8609 6.7787
140 1 -1.1104 6.77295 16.7453 1.00089
302 1 -1.1104 1.15032 19.5144 6.69821
26 2 2.2208 10.9232 18.1268 10.9412
342 2 2.2208 10.8462 12.5414 -0.4905
110 1 -1.1104 6.79251 13.8378 1.1322
111 1 -1.1104 6.78802 13.976 6.84309
122 1 -1.1104 6.7574 16.6152 3.91251
115 1 -1.1104 6.62943 13.8288 3.95678
138 1 -1.1104 6.99606 19.463 1.39086
139 1 -1.1104 6.6895 19.3566 4.04311
141 2 2.2208 10.9174 18.0483 5.29641
142 1 -1.1104 12.3571 13.8874 0.862638
144 1 -1.1104 12.513 19.3143 1.23559
146 1 -1.1104 12.3884 13.9335 3.84256
147 1 -1.1104 12.4153 19.4236 3.91331
148 1 -1.1104 12.4466 16.6613 0.94294
150 2 2.2208 11.0035 15.2694 2.42836
151 2 2.2208 11.082 20.7595 2.48523
152 1 -1.1104 12.3991 16.7839 3.88239
153 1 -1.1104 9.5885 13.9082 1.02875
155 1 -1.1104 9.80126 19.4927 1.01603
157 2 2.2208 8.24447 18.0287 2.60444
158 1 -1.1104 9.49892 13.7076 4.03218
159 1 -1.1104 9.5755 19.4609 3.9482
160 2 2.2208 8.09491 15.2463 5.29389
161 2 2.2208 8.20511 20.8724 5.29943
162 1 -1.1104 9.63822 16.5954 1.03416
164 1 -1.1104 9.56725 16.7206 3.89383
143 1 -1.1104 12.311 13.874 6.73522
112 1 -1.1104 6.74361 19.5647 6.88746
82 2 2.2208 -0.298773 9.71938 2.48207
135 1 -1.1104 12.3557 19.4503 9.62671
542 2 2.2208 10.9902 17.9688 -0.418369
167 1 -1.1104 1.16402 2.61872 6.61921
173 1 -1.1104 3.97758 2.74865 6.67929
172 1 -1.1104 3.90533 -2.93034 6.59184
174 1 -1.1104 3.79898 -0.0727637 6.74834
170 1 -1.1104 0.9354 -0.082102 6.67216
8447 2 2.2208 5.19061 -4.30215 10.7865
83 2 2.2208 -0.316739 12.501 5.33918
311 1 -1.1104 12.2723 16.7437 9.65744
53 2 2.2208 13.6025 9.57257 5.29119
166 1 -1.1104 1.10085 -2.94575 6.54814
201 2 2.2208 -0.217487 1.19219 10.7367
175 2 2.2208 5.26537 1.18037 10.827
176 1 -1.1104 1.1072 -3.19547 12.373
177 1 -1.1104 1.10741 2.53477 12.0566
180 1 -1.1104 1.06701 -3.04716 9.45191
181 1 -1.1104 0.973427 2.46852 9.23848
184 1 -1.1104 0.91634 -0.294471 12.2477
186 2 2.2208 5.25313 -1.65899 8.06501
188 1 -1.1104 1.14459 -0.203006 9.44699
190 1 -1.1104 3.81676 -2.87448 12.3433
191 1 -1.1104 4.04947 2.65653 12.2711
192 2 2.2208 2.48325 1.26204 7.94957
193 1 -1.1104 3.88447 -2.9784 9.46583
194 1 -1.1104 3.7491 2.61715 9.47942
195 2 2.2208 2.51395 -1.61013 10.728
197 1 -1.1104 3.89123 -0.0900285 12.2137
198 1 -1.1104 3.9008 -0.0723487 9.50731
196 2 2.2208 2.4102 4.05238 10.9053
187 2 2.2208 5.22525 4.12045 8.16919
168 1 -1.1104 6.69304 -2.98915 6.57627
189 1 -1.1104 6.56769 -0.143402 9.43186
183 1 -1.1104 6.68862 2.77125 9.39326
8863 2 2.2208 -0.369453 18.1258 5.28122
233 1 -1.1104 9.57829 19.6374 9.54955
169 1 -1.1104 6.79086 2.48893 6.64397
171 1 -1.1104 6.64958 -0.146735 6.76252
210 1 -1.1104 9.52414 -0.128098 6.54228
207 1 -1.1104 12.2267 -0.271522 6.62334
319 2 2.2208 2.37435 1.08952 13.6173
30 2 2.2208 13.6677 9.64379 10.877
179 1 -1.1104 6.78031 2.57551 12.1898
185 1 -1.1104 6.84248 -0.157939 12.2936
182 1 -1.1104 6.58856 -2.92863 9.4437
206 1 -1.1104 12.3486 2.65436 6.63495
209 1 -1.1104 9.58523 2.68588 6.59284
178 1 -1.1104 6.65559 -2.97098 12.2081
211 2 2.2208 10.8659 1.29314 10.8108
212 1 -1.1104 12.3128 -3.07737 12.4315
213 1 -1.1104 12.4103 2.47212 12.1776
214 1 -1.1104 12.2385 -3.06949 9.54951
215 1 -1.1104 12.3629 2.54702 9.40723
216 1 -1.1104 12.218 -0.220729 12.2042
217 2 2.2208 10.8376 -1.6566 8.09927
218 2 2.2208 10.8651 4.06042 8.04125
219 1 -1.1104 12.2601 -0.292444 9.42505
220 1 -1.1104 9.41933 -2.96565 12.2443
221 1 -1.1104 9.75643 2.59368 12.2531
222 2 2.2208 8.02984 1.27495 8.15715
223 1 -1.1104 9.46117 -2.919 9.60126
224 1 -1.1104 9.52217 2.60103 9.38154
225 2 2.2208 8.06886 -1.49103 10.8359
227 1 -1.1104 9.48821 -0.178609 12.2471
228 1 -1.1104 9.26871 -0.208404 9.35267
226 2 2.2208 8.00829 4.02832 10.9645
27 1 -1.1104 12.2315 13.8403 12.3643
145 1 -1.1104 12.1542 19.3453 6.75571
316 2 2.2208 8.14422 21.0107 10.845
314 1 -1.1104 9.64082 16.7778 9.52854
290 1 -1.1104 6.7066 13.86 9.61252
62 1 -1.1104 0.773206 10.988 6.63927
78 1 -1.1104 3.60564 11.1301 6.53412
240 2 2.2208 5.28373 6.8344 11.0195
241 2 2.2208 5.32125 12.6292 10.9496
242 1 -1.1104 1.01498 8.20113 12.2862
244 1 -1.1104 1.01773 7.98167 9.55177
246 1 -1.1104 1.3056 5.53344 12.2106
247 1 -1.1104 0.99215 10.986 12.3704
250 2 2.2208 5.27948 9.64258 8.15843
251 1 -1.1104 0.988205 5.36976 9.33765
252 1 -1.1104 0.943069 10.8595 9.39608
255 1 -1.1104 4.05296 8.47505 12.4491
256 2 2.2208 2.46566 6.75849 8.09612
257 2 2.2208 2.46425 12.3358 8.09572
258 1 -1.1104 3.7559 8.06901 9.64603
259 2 2.2208 2.49634 9.58509 10.878
260 1 -1.1104 3.99157 5.57779 12.4034
261 1 -1.1104 3.81899 11.1709 12.1477
262 1 -1.1104 3.82497 5.33037 9.57202
263 1 -1.1104 3.78883 10.9547 9.4747
245 1 -1.1104 6.72952 8.34243 9.4966
254 1 -1.1104 6.7077 11.0866 9.50117
203 1 -1.1104 9.61021 19.7657 12.3793
163 1 -1.1104 9.64976 16.7396 6.64481
101 1 -1.1104 9.35101 11.0936 6.72095
265 1 -1.1104 12.2695 8.04606 6.62652
154 1 -1.1104 9.62111 13.8905 6.71298
231 2 2.2208 8.24192 18.1477 8.17861
243 1 -1.1104 6.66503 8.20332 12.3582
249 1 -1.1104 6.61953 11.2691 12.2189
266 1 -1.1104 12.1097 5.37302 6.74802
253 1 -1.1104 6.71012 5.49849 9.46242
269 1 -1.1104 9.21992 5.36537 6.82558
248 1 -1.1104 6.68301 5.51941 12.3836
264 1 -1.1104 9.52233 11.1625 9.50052
268 1 -1.1104 9.60436 5.34772 9.67762
270 1 -1.1104 9.55665 11.0753 12.242
271 1 -1.1104 9.37437 5.43604 12.3161
272 2 2.2208 8.05847 9.70551 11.004
273 1 -1.1104 9.50065 8.20444 9.46601
274 2 2.2208 8.08213 12.4415 8.11145
275 2 2.2208 8.08406 6.88744 8.0589
276 2 2.2208 10.8263 6.81899 10.9566
277 2 2.2208 10.9435 12.4662 10.8999
278 1 -1.1104 12.1888 8.35279 12.1986
279 1 -1.1104 12.2876 8.21323 9.46734
280 1 -1.1104 12.2203 5.37813 12.4302
281 1 -1.1104 12.3037 11.0716 12.3765
282 2 2.2208 10.7801 9.68843 8.19331
283 1 -1.1104 12.201 5.29448 9.49849
284 1 -1.1104 12.1414 11.0585 9.5293
285 1 -1.1104 9.43253 8.34615 12.328
202 1 -1.1104 9.45308 13.8958 12.2919
52 2 2.2208 13.6086 6.83184 8.25951
49 2 2.2208 13.6266 1.13323 2.44758
165 2 2.2208 11.0287 20.9386 8.07085
296 1 -1.1104 6.81292 19.4744 12.3431
288 1 -1.1104 6.78793 19.5887 9.51408
289 1 -1.1104 6.80628 16.7307 9.49089
133 1 -1.1104 4.08843 16.7049 6.85925
126 1 -1.1104 3.76815 19.5239 6.68789
117 1 -1.1104 1.16817 16.6301 6.56884
297 1 -1.1104 6.61293 13.923 12.2585
286 1 -1.1104 3.81663 19.4975 12.1067
287 1 -1.1104 3.88397 14.047 12.3209
291 1 -1.1104 1.20354 19.5885 9.56073
292 1 -1.1104 1.0772 16.7218 9.51365
293 2 2.2208 5.19131 20.8453 8.11789
294 1 -1.1104 0.972451 13.718 9.60545
295 2 2.2208 5.39609 15.3397 8.19371
298 1 -1.1104 1.00303 19.4354 12.3606
299 1 -1.1104 1.06301 13.8002 12.2928
300 2 2.2208 5.37696 18.1005 10.89
301 1 -1.1104 4.01445 19.326 9.38954
303 2 2.2208 2.44664 18.122 8.02021
304 1 -1.1104 3.84727 16.5346 9.50237
305 1 -1.1104 3.83818 13.7246 9.57487
307 1 -1.1104 0.903131 16.6887 12.238
308 1 -1.1104 3.81316 16.9426 12.2174
309 2 2.2208 2.49113 20.9024 10.9141
310 2 2.2208 2.42917 15.1772 10.813
306 1 -1.1104 6.66265 16.6778 12.2868
105 1 -1.1104 12.4342 13.9449 9.53462
118 1 -1.1104 6.84189 16.756 6.63592
232 1 -1.1104 9.4485 13.8901 9.47703
136 1 -1.1104 12.3066 16.6108 12.3486
104 1 -1.1104 12.2915 19.371 12.3161
320 2 2.2208 5.16544 3.95335 13.82
29 2 2.2208 -0.3769 12.3893 10.8617
321 2 2.2208 8.20999 1.32153 13.6938
204 2 2.2208 -0.260461 -4.54013 10.9738
8930 2 2.2208 13.7543 15.3655 5.27713
230 2 2.2208 13.6697 -1.63279 10.9491
9123 2 2.2208 13.7059 18.1396 8.23113
9124 2 2.2208 -0.325278 4.08963 2.44157
323 2 2.2208 2.42344 6.84093 13.7251
8463 2 2.2208 2.5465 -4.35131 13.7472
8460 2 2.2208 8.03611 -4.39372 13.5645
340 2 2.2208 -0.195264 12.3565 -0.33454
9130 2 2.2208 -0.269502 6.86853 -0.31306
9125 2 2.2208 -0.428699 18.1146 -0.233288
513 2 2.2208 2.40219 18.1732 13.5976
335 2 2.2208 8.10694 20.8683 -0.13854
341 2 2.2208 8.06867 9.66493 -0.323887
336 2 2.2208 8.14789 4.03899 -0.313726
332 2 2.2208 2.39266 -1.53993 -0.281788
331 2 2.2208 2.41203 20.8761 -0.181929
330 2 2.2208 5.1729 18.0196 -0.278662
597 2 2.2208 10.8411 1.1125 -0.31219
343 2 2.2208 5.20321 1.11745 16.3182
344 1 -1.1104 1.06477 -3.09534 17.9544
345 1 -1.1104 1.00017 2.6107 18.0291
348 1 -1.1104 1.24168 -3.2172 15.2571
350 1 -1.1104 1.05998 2.45209 15.2295
356 1 -1.1104 1.09945 -0.338444 17.9054
358 2 2.2208 5.37519 -1.62353 19.2
359 2 2.2208 5.27581 3.92775 19.2887
360 1 -1.1104 1.04158 -0.388693 15.0097
364 1 -1.1104 3.92104 -3.09066 18.0173
365 1 -1.1104 3.73333 2.51042 17.876
366 2 2.2208 2.55141 1.18713 19.2492
367 1 -1.1104 3.80175 -3.0223 15.1497
369 1 -1.1104 3.93955 2.44878 15.0413
371 2 2.2208 2.53711 -1.67621 16.5369
373 1 -1.1104 3.99668 -0.274891 17.7603
374 1 -1.1104 3.75677 -0.278073 15.0183
372 2 2.2208 2.44254 4.01528 16.3506
379 2 2.2208 -0.314834 0.994264 16.6619
347 1 -1.1104 6.60331 2.57475 17.9194
9282 2 2.2208 -0.284007 6.73141 16.5289
325 2 2.2208 8.13009 12.4706 13.6796
361 1 -1.1104 1.10542 -0.338994 20.7042
375 1 -1.1104 3.94501 -0.149967 20.639
8536 2 2.2208 2.48785 -4.41886 24.9711
9357 2 2.2208 -0.19592 3.98798 24.8978
370 1 -1.1104 4.00681 2.7056 20.6224
351 1 -1.1104 1.08928 2.59181 20.7388
572 2 2.2208 -0.286398 4.04225 19.2805
570 2 2.2208 13.7923 9.6691 16.4892
512 2 2.2208 5.24254 15.4232 13.7159
8646 2 2.2208 -0.249864 -4.55852 16.4641
362 1 -1.1104 6.71116 -0.336122 14.9727
355 1 -1.1104 6.70453 2.53829 20.6786
352 1 -1.1104 6.67562 -2.91774 15.0785
357 1 -1.1104 6.81651 -0.355209 17.831
354 1 -1.1104 6.76372 2.5101 15.1382
346 1 -1.1104 6.81984 -3.08714 17.9937
386 2 2.2208 10.8386 1.25309 16.3627
387 1 -1.1104 12.078 2.54617 17.9374
388 1 -1.1104 12.4494 -3.16493 15.477
389 1 -1.1104 12.2051 2.73212 15.0468
391 1 -1.1104 12.3196 -0.438191 18.084
392 2 2.2208 10.7051 -1.54531 19.2356
393 2 2.2208 10.7552 3.92353 19.3612
394 1 -1.1104 12.4236 -0.120588 15.1317
396 1 -1.1104 9.71609 -2.94277 17.7423
397 1 -1.1104 9.47968 2.56241 17.9001
398 2 2.2208 7.93459 1.19204 19.2072
399 1 -1.1104 9.59852 -3.0041 14.9833
401 1 -1.1104 9.45913 2.53256 15.0988
403 2 2.2208 8.13069 -1.79287 16.4389
405 1 -1.1104 9.39378 -0.172159 17.862
406 1 -1.1104 9.61211 -0.192493 15.1807
404 2 2.2208 8.04826 4.00861 16.4302
363 1 -1.1104 6.61753 -0.233762 20.5191
395 1 -1.1104 12.2086 -0.33461 20.6934
9136 2 2.2208 -0.246945 1.28459 27.6919
402 1 -1.1104 9.31214 2.58435 20.7709
407 1 -1.1104 9.40339 -0.208646 20.5563
353 1 -1.1104 6.79247 -2.98828 20.7271
322 2 2.2208 10.9021 4.15446 13.774
451 2 2.2208 2.52533 12.48 13.6082
416 2 2.2208 5.24234 6.9062 16.4924
417 2 2.2208 5.30946 12.4833 16.4177
418 1 -1.1104 0.954959 8.02533 17.9708
420 1 -1.1104 1.06411 8.48921 15.125
424 1 -1.1104 1.06504 5.23536 17.9121
425 1 -1.1104 1.0964 11.0728 17.8135
428 2 2.2208 5.35221 9.60709 19.2057
429 1 -1.1104 1.26854 5.6348 15.2264
431 1 -1.1104 1.08212 11.0469 15.1029
437 1 -1.1104 3.77119 8.19775 17.8601
438 2 2.2208 2.43744 6.82765 19.2232
439 2 2.2208 2.44443 12.3994 19.2346
440 1 -1.1104 3.86434 8.33224 15.1302
442 2 2.2208 2.4447 9.76864 16.404
443 1 -1.1104 3.93684 5.4132 17.8355
444 1 -1.1104 3.97506 11.0418 17.6924
445 1 -1.1104 3.94053 5.48774 15.2034
447 1 -1.1104 3.95196 11.2967 14.958
432 1 -1.1104 1.19387 11.0608 20.6568
448 1 -1.1104 3.96919 11.0154 20.604
441 1 -1.1104 3.98574 8.27815 20.6693
419 1 -1.1104 6.60108 8.31158 17.8168
423 1 -1.1104 6.63209 8.13978 20.7295
422 1 -1.1104 6.68874 8.32877 15.0756
602 2 2.2208 7.9983 18.1517 25.039
324 2 2.2208 5.33455 9.78238 13.8039
9354 2 2.2208 -0.235826 15.188 13.7013
426 1 -1.1104 6.52465 5.44091 17.7937
435 1 -1.1104 6.72212 11.0916 15.1494
427 1 -1.1104 6.74147 11.0932 17.9085
433 1 -1.1104 6.67699 5.26757 15.0499
454 2 2.2208 10.7446 6.82446 16.5154
455 2 2.2208 10.8247 12.5717 16.6265
456 1 -1.1104 12.3112 8.19502 17.802
457 1 -1.1104 12.2224 8.27659 15.0233
459 1 -1.1104 12.1897 5.39966 17.9906
460 1 -1.1104 12.2727 11.0461 18.0876
461 2 2.2208 10.9636 9.70037 19.213
462 1 -1.1104 12.1765 5.50841 15.2214
464 1 -1.1104 12.2959 11.1924 15.4721
466 1 -1.1104 9.45197 8.24174 17.7962
467 2 2.2208 7.94464 6.7831 19.2765
468 2 2.2208 8.02802 12.5351 19.3533
469 1 -1.1104 9.35692 8.15994 15.2042
471 2 2.2208 8.02818 9.73571 16.4737
472 1 -1.1104 9.31147 5.4011 17.8481
473 1 -1.1104 9.42554 11.0342 17.9222
474 1 -1.1104 9.43849 5.38265 15.1982
476 1 -1.1104 9.50443 10.9915 15.0636
470 1 -1.1104 9.47573 8.22394 20.6496
465 1 -1.1104 12.438 11.1322 20.8173
385 2 2.2208 7.96609 15.2993 22.1813
475 1 -1.1104 9.44937 5.35741 20.7374
463 1 -1.1104 12.2561 5.50219 20.7971
606 1 -1.1104 12.2016 13.8729 26.119
450 2 2.2208 -0.301096 17.8812 22.0738
607 1 -1.1104 12.3154 19.4097 26.4123
479 2 2.2208 5.23274 18.0154 16.5089
480 1 -1.1104 1.17683 13.942 17.9191
481 1 -1.1104 0.93113 19.4192 17.9725
484 1 -1.1104 1.14769 13.7192 15.2493
486 1 -1.1104 1.08669 19.3945 15.0708
492 1 -1.1104 1.06429 16.6032 17.8486
494 2 2.2208 5.2844 15.2345 19.1872
495 2 2.2208 5.342 20.8408 19.4396
496 1 -1.1104 1.1577 16.5692 15.0378
500 1 -1.1104 3.85193 13.739 17.9158
501 1 -1.1104 3.77466 19.4919 17.7775
502 2 2.2208 2.45941 17.9858 19.2865
503 1 -1.1104 3.91213 14.0532 15.1803
505 1 -1.1104 3.91866 19.533 14.946
507 2 2.2208 2.47616 15.2242 16.525
508 2 2.2208 2.50206 20.8773 16.4783
509 1 -1.1104 3.91675 16.6078 17.9066
510 1 -1.1104 3.77419 16.722 15.0835
483 1 -1.1104 6.81774 19.5725 17.9903
384 1 -1.1104 9.58146 19.6222 26.4377
9355 2 2.2208 -0.417771 20.8692 13.6819
673 1 -1.1104 6.56172 13.9772 23.5356
511 1 -1.1104 3.87419 16.524 20.6409
491 1 -1.1104 6.62665 19.4551 20.7843
377 2 2.2208 13.731 9.65276 21.9856
9383 2 2.2208 13.7138 18.174 13.6044
489 1 -1.1104 6.81365 13.7751 20.8013
490 1 -1.1104 6.70416 19.5788 15.1219
488 1 -1.1104 6.68852 14.0486 15.0729
493 1 -1.1104 6.74009 16.6793 17.913
482 1 -1.1104 6.61779 13.9558 17.8482
498 1 -1.1104 6.78789 16.7783 15.1832
515 2 2.2208 11.0139 18.1972 16.5056
516 1 -1.1104 12.2277 13.8765 18.0237
517 1 -1.1104 12.3447 19.5774 17.916
518 1 -1.1104 12.1283 13.859 15.2633
520 1 -1.1104 12.2444 19.6507 15.2407
522 1 -1.1104 12.2915 16.6977 17.8893
523 2 2.2208 10.9127 15.2983 19.2663
524 2 2.2208 10.9605 20.8894 19.2465
525 1 -1.1104 12.4394 16.7998 15.136
527 1 -1.1104 9.39761 13.8681 17.8419
528 1 -1.1104 9.6081 19.5264 17.9968
529 2 2.2208 8.07989 18.0139 19.3194
530 1 -1.1104 9.42811 13.9722 15.1469
532 1 -1.1104 9.46624 19.4173 15.1479
534 2 2.2208 8.15039 15.4073 16.5902
535 2 2.2208 8.01258 20.8623 16.5076
536 1 -1.1104 9.53135 16.8367 17.9344
537 1 -1.1104 9.65377 16.5586 15.2005
538 1 -1.1104 9.38229 16.7382 20.8408
499 1 -1.1104 6.62111 16.603 20.7831
383 1 -1.1104 9.47621 13.9499 26.374
8644 2 2.2208 5.32138 -4.41316 16.5557
349 1 -1.1104 1.19978 -3.24568 20.8044
415 1 -1.1104 9.47004 16.9008 23.427
326 2 2.2208 8.05302 6.7414 13.7517
327 2 2.2208 10.9249 15.3629 13.7625
414 2 2.2208 10.852 -1.56281 13.6597
368 1 -1.1104 4.002 -3.06844 20.7282
543 2 2.2208 5.24529 1.24263 22.0733
544 1 -1.1104 1.04289 -3.07802 23.5175
545 1 -1.1104 1.11544 2.52663 23.5344
548 1 -1.1104 1.09852 -3.06634 26.2785
549 1 -1.1104 1.15639 2.48918 26.2493
552 1 -1.1104 1.143 -0.346942 23.4884
554 2 2.2208 5.32102 -1.69618 24.8323
556 1 -1.1104 1.21329 -0.331869 26.2049
558 1 -1.1104 3.89508 -2.98251 23.5205
559 1 -1.1104 3.85612 2.60781 23.3771
560 2 2.2208 2.55139 1.13894 24.9509
561 1 -1.1104 3.86872 -2.91471 26.3411
562 1 -1.1104 3.86931 2.44733 26.1971
563 2 2.2208 2.5947 -1.77898 22.1663
564 2 2.2208 2.45668 3.96194 22.0471
565 1 -1.1104 3.89146 -0.192767 23.4564
566 1 -1.1104 3.9393 -0.231185 26.4464
555 2 2.2208 5.31564 4.05981 24.9836
533 1 -1.1104 9.33984 19.3675 20.7648
551 1 -1.1104 6.77047 2.57169 26.2091
662 2 2.2208 13.6323 6.79125 24.8856
636 2 2.2208 -0.349957 9.54178 24.9469
578 2 2.2208 10.8039 18.1255 22.1093
600 1 -1.1104 12.2024 13.8898 23.3981
603 1 -1.1104 6.63814 19.4872 26.5533
637 2 2.2208 -0.23272 12.3135 22.1132
526 1 -1.1104 12.2097 16.7316 20.7739
390 1 -1.1104 12.2042 2.66374 20.7229
557 1 -1.1104 6.75746 -0.248845 26.2526
550 1 -1.1104 6.65438 -3.09679 26.3854
547 1 -1.1104 6.62621 2.49603 23.6409
400 1 -1.1104 9.59311 -3.07348 20.7696
553 1 -1.1104 6.83731 -0.282184 23.493
546 1 -1.1104 6.70972 -2.96081 23.5604
579 2 2.2208 10.9054 1.1236 22.1331
580 1 -1.1104 12.0709 -2.95926 22.917
581 1 -1.1104 12.4417 2.68898 23.5125
582 1 -1.1104 12.367 -3.04415 25.9449
583 1 -1.1104 12.2355 2.67176 26.2907
584 1 -1.1104 12.3464 -0.271265 23.5069
585 2 2.2208 10.9173 -1.63094 24.873
586 2 2.2208 10.9135 4.03267 24.9253
587 1 -1.1104 12.2611 -0.228382 26.2296
588 1 -1.1104 9.53256 -3.09643 23.6108
589 1 -1.1104 9.52473 2.56941 23.5421
590 2 2.2208 8.13669 1.16924 24.9538
591 1 -1.1104 9.6442 -3.01415 26.3164
592 1 -1.1104 9.47805 2.665 26.3206
593 2 2.2208 8.03373 -1.68945 22.0792
594 2 2.2208 7.99266 3.90077 22.2203
595 1 -1.1104 9.52517 -0.350486 23.5713
596 1 -1.1104 9.51479 -0.195415 26.2933
413 2 2.2208 8.11539 20.8696 22.1196
452 2 2.2208 11.0084 20.8957 24.9586
421 1 -1.1104 1.14122 8.22279 20.7826
446 1 -1.1104 3.74825 5.44981 20.7748
430 1 -1.1104 1.00174 5.42745 20.6931
608 2 2.2208 5.34708 6.81701 22.0704
609 2 2.2208 5.26544 12.2715 22.0292
610 1 -1.1104 1.0533 8.1078 23.531
612 1 -1.1104 1.19882 8.2595 26.2385
614 1 -1.1104 1.02683 5.44304 23.4902
615 1 -1.1104 1.13751 10.9301 23.554
618 2 2.2208 5.33898 9.60655 24.8175
619 1 -1.1104 1.04815 5.34091 26.4624
620 1 -1.1104 1.1252 11.15 26.3753
623 1 -1.1104 3.90021 8.34403 23.6447
624 2 2.2208 2.47027 6.87516 24.919
625 2 2.2208 2.58409 12.2643 24.9089
626 1 -1.1104 4.00608 8.1814 26.4202
627 2 2.2208 2.44465 9.46129 22.118
628 1 -1.1104 3.80245 5.51061 23.5577
629 1 -1.1104 3.92676 11.0009 23.4338
630 1 -1.1104 3.96057 5.49531 26.379
631 1 -1.1104 3.90397 11.0694 26.3283
605 1 -1.1104 12.3251 19.451 23.4348
621 1 -1.1104 6.74391 5.38608 26.3228
622 1 -1.1104 6.86316 10.9556 26.2641
531 1 -1.1104 9.64254 13.9508 20.6595
574 1 -1.1104 9.38598 13.9781 23.5471
521 1 -1.1104 12.2649 19.4561 20.7306
436 1 -1.1104 6.7218 10.8599 20.6788
458 1 -1.1104 12.2048 8.43246 20.5659
666 1 -1.1104 6.53035 16.7165 26.3359
611 1 -1.1104 6.78984 8.16836 23.5951
617 1 -1.1104 6.63707 11.1284 23.4741
613 1 -1.1104 6.70824 8.13635 26.4282
434 1 -1.1104 6.70023 5.43156 20.6682
477 1 -1.1104 9.467 11.039 21.0023
616 1 -1.1104 6.58453 5.36892 23.2829
639 1 -1.1104 9.51302 11.146 26.3775
640 1 -1.1104 9.42628 5.46132 26.2975
641 1 -1.1104 9.55777 11.0006 23.6493
642 1 -1.1104 9.3955 5.31359 23.5216
643 2 2.2208 8.16489 9.51627 22.1794
644 1 -1.1104 9.39055 8.37545 26.2068
645 2 2.2208 8.02335 12.4685 24.9027
646 2 2.2208 8.10391 6.77933 24.9273
647 2 2.2208 10.8862 6.86752 22.0439
648 2 2.2208 10.8213 12.3897 22.1843
649 1 -1.1104 12.5083 8.39026 23.4267
650 1 -1.1104 12.3053 8.28947 26.1749
651 1 -1.1104 12.2062 5.48123 23.5789
652 1 -1.1104 12.2078 11.0759 23.4322
653 2 2.2208 10.9073 9.64643 24.8764
654 1 -1.1104 12.3268 5.58466 26.3645
655 1 -1.1104 12.2467 11.1744 26.3368
656 1 -1.1104 9.56311 8.20442 23.5226
9351 2 2.2208 -0.362656 20.7173 19.2992
575 1 -1.1104 6.63647 16.6593 23.7078
514 2 2.2208 5.2559 20.9217 13.6934
485 1 -1.1104 1.1058 13.7883 20.6927
664 1 -1.1104 6.67895 13.8486 26.2851
487 1 -1.1104 1.04938 19.3407 20.6824
601 1 -1.1104 9.53027 19.6947 23.641
497 1 -1.1104 1.12354 16.5075 20.5996
504 1 -1.1104 3.94325 13.8245 20.575
506 1 -1.1104 3.81828 19.3961 20.6698
672 2 2.2208 5.2464 15.2462 24.9519
671 2 2.2208 5.19683 20.7806 24.9041
669 1 -1.1104 1.11142 13.8049 26.3791
567 2 2.2208 2.57093 15.0948 22.0241
568 2 2.2208 2.42381 20.8061 22.1513
569 1 -1.1104 3.96088 16.4916 23.5373
571 1 -1.1104 1.18805 16.6035 23.4791
599 1 -1.1104 3.84328 13.7131 26.1898
632 1 -1.1104 3.87245 16.4987 26.3583
633 2 2.2208 2.46217 17.8735 24.9123
634 1 -1.1104 3.88158 19.4741 26.2662
635 2 2.2208 5.35087 18.0074 22.2297
658 1 -1.1104 1.05056 13.7808 23.5481
659 1 -1.1104 0.900759 19.3916 23.562
663 1 -1.1104 3.79705 19.3065 23.6095
665 1 -1.1104 3.86378 13.5917 23.397
667 1 -1.1104 1.10409 19.4512 26.4139
668 1 -1.1104 1.04412 16.6938 26.3425
449 1 -1.1104 9.48585 16.8 26.3299
638 1 -1.1104 12.2735 16.5742 23.4487
670 1 -1.1104 6.70209 19.46 23.5813
478 2 2.2208 10.9404 15.3001 24.7752
573 1 -1.1104 12.3077 16.6916 26.1603
519 1 -1.1104 12.5391 13.9023 20.7012
539 2 2.2208 10.9443 20.9944 13.7871
540 2 2.2208 -0.252781 15.2341 24.7879
576 2 2.2208 -0.230742 -1.53234 24.8064
380 2 2.2208 -0.231733 -1.80855 19.4844
9352 2 2.2208 -0.306265 15.2793 19.2127
577 2 2.2208 -0.209241 1.09345 22.0269
333 2 2.2208 2.54471 3.96836 27.7223
9168 2 2.2208 13.5897 4.15395 16.594
541 2 2.2208 8.09448 18.1816 13.6632
9207 2 2.2208 13.6893 4.03647 27.7855
598 2 2.2208 8.05689 -1.69647 27.5914
328 2 2.2208 5.35201 1.07696 27.6907
338 2 2.2208 2.57423 9.60997 27.7826
318 2 2.2208 5.27288 -1.48835 13.5956
329 2 2.2208 2.46045 15.3207 27.8226
453 2 2.2208 10.9055 9.64824 13.702
381 2 2.2208 -0.286015 -1.77461 13.7046
9133 2 2.2208 -0.401865 9.63943 13.7165
412 2 2.2208 8.13452 15.3193 27.6995
604 2 2.2208 13.594 -1.67801 27.6078
674 2 2.2208 5.23406 23.7379 5.28236
675 2 2.2208 5.24713 29.3057 5.24703
676 1 -1.1104 1.00451 25.1232 1.01551
677 1 -1.1104 1.12707 24.9547 3.88878
678 1 -1.1104 0.961034 22.3062 1.33194
679 1 -1.1104 1.08123 27.7971 1.2583
680 2 2.2208 5.14936 26.5446 2.23651
681 1 -1.1104 1.03068 22.1506 3.97401
682 1 -1.1104 0.963871 27.9132 4.01866
683 1 -1.1104 3.81882 25.1135 0.986603
684 2 2.2208 2.42404 23.6182 2.47741
685 2 2.2208 2.45692 29.3276 2.45594
686 1 -1.1104 3.88541 24.8712 3.77863
687 2 2.2208 2.44451 26.5149 5.28294
688 1 -1.1104 3.88887 22.2038 1.03331
689 1 -1.1104 3.75341 28.1186 0.86708
690 1 -1.1104 4.02224 22.1454 3.88915
691 1 -1.1104 3.81588 27.9156 3.91981
1016 2 2.2208 13.781 37.7712 -0.393815
698 1 -1.1104 6.48075 28.0474 1.12076
700 1 -1.1104 6.56677 27.8436 3.64885
696 1 -1.1104 6.61707 25.2518 3.73303
697 1 -1.1104 6.6857 22.3903 1.09007
1018 2 2.2208 10.886 34.9152 -0.273673
1005 2 2.2208 13.6656 29.3011 13.5907
817 1 -1.1104 1.12288 22.285 6.76396
720 2 2.2208 13.6154 29.3096 2.50051
987 2 2.2208 13.6075 34.9529 8.05002
695 1 -1.1104 6.66826 25.1701 1.02949
699 1 -1.1104 6.70795 22.2774 3.90936
701 2 2.2208 10.9512 23.5327 5.02533
702 2 2.2208 10.8056 29.1862 5.23393
703 1 -1.1104 12.2869 24.9085 1.05668
704 1 -1.1104 12.3105 24.9651 3.82525
705 1 -1.1104 12.2708 22.1475 1.0942
706 1 -1.1104 12.2004 27.8432 1.08005
707 2 2.2208 10.8851 26.4447 2.34095
708 1 -1.1104 12.4583 22.1801 3.92074
709 1 -1.1104 12.2847 27.7698 3.78295
710 1 -1.1104 9.37597 25.1653 0.967902
711 2 2.2208 7.94061 23.7766 2.53818
712 2 2.2208 7.98145 29.3344 2.49635
713 1 -1.1104 9.32676 24.9779 4.37771
714 2 2.2208 7.97311 26.5597 5.21242
715 1 -1.1104 9.50285 22.4355 1.27024
716 1 -1.1104 9.4738 28.0399 1.00547
717 1 -1.1104 9.47721 22.181 3.92405
718 1 -1.1104 9.40113 27.7873 3.88242
848 1 -1.1104 12.3873 24.8726 6.56915
852 1 -1.1104 9.41601 27.6111 6.6021
850 1 -1.1104 12.2694 27.9593 6.4857
819 1 -1.1104 6.46394 22.2355 6.76931
849 1 -1.1104 12.2287 22.1209 6.62733
1002 2 2.2208 13.6946 40.6115 13.5935
1011 2 2.2208 10.9645 23.6077 -0.240704
1179 2 2.2208 2.51665 40.5834 13.7353
723 2 2.2208 5.26365 35.1129 5.24586
724 1 -1.1104 0.885728 30.4874 1.10789
725 1 -1.1104 1.07267 36.17 1.00137
727 1 -1.1104 1.14459 30.6593 3.76211
728 1 -1.1104 1.19143 36.3139 3.81334
730 1 -1.1104 1.00136 33.5159 0.966772
731 2 2.2208 5.32855 32.1361 2.58678
732 2 2.2208 5.11218 37.9594 2.30763
733 1 -1.1104 1.11873 33.349 3.8744
735 1 -1.1104 3.72764 30.9316 1.26112
736 1 -1.1104 3.82882 36.3592 1.01702
737 2 2.2208 2.52691 34.8879 2.41207
738 1 -1.1104 3.88235 30.7312 3.95435
739 1 -1.1104 3.90014 36.4821 3.85109
740 2 2.2208 2.53338 32.1429 5.24483
741 2 2.2208 2.4597 37.8059 5.18599
742 1 -1.1104 3.82914 33.5199 1.07066
743 1 -1.1104 3.84625 33.7014 3.77176
1013 2 2.2208 2.31926 37.6346 -0.329112
748 1 -1.1104 6.67526 33.5186 1.18072
869 1 -1.1104 1.01101 30.7032 6.6335
746 1 -1.1104 6.64882 30.6952 1.12792
877 1 -1.1104 3.7658 33.5879 6.55322
729 1 -1.1104 6.78356 36.3464 3.72218
726 1 -1.1104 6.67211 36.3304 0.925232
9783 2 2.2208 -0.41015 29.4417 5.26316
959 2 2.2208 -0.198119 43.3278 7.96158
876 1 -1.1104 3.90615 36.5034 6.55343
872 1 -1.1104 6.63048 36.3446 6.55328
1012 2 2.2208 7.91213 26.6909 -0.137687
747 1 -1.1104 6.59053 30.7215 3.97626
734 1 -1.1104 6.66542 33.5483 3.99749
749 2 2.2208 10.9595 34.8619 5.26724
750 1 -1.1104 12.1153 30.7707 1.0176
751 1 -1.1104 12.2945 36.3662 1.12288
752 1 -1.1104 12.2467 30.5216 3.84067
753 1 -1.1104 12.2862 36.369 3.93959
754 1 -1.1104 12.2262 33.57 1.05351
755 2 2.2208 10.9569 32.0673 2.46812
756 2 2.2208 10.8995 37.8144 2.49089
757 1 -1.1104 12.341 33.5238 3.81741
758 1 -1.1104 9.40791 30.6836 1.10351
759 1 -1.1104 9.57049 36.299 1.07811
760 2 2.2208 8.05282 34.9411 2.41439