ITEM: TIMESTEP
50000
ITEM: NUMBER OF ATOMS
18000
ITEM: BOX BOUNDS xy xz yz pp pp pp
-1.1822966103458926e-01 2.8012229661034585e+01 0.0000000000000000e+00
-1.3269627551566199e+00 3.3605496275515202e+02 0.0000000000000000e+00
-1.1151655048120265e-01 2.8005516550480888e+01 0.0000000000000000e+00
ITEM: ATOMS id type x y z
1 1 1.16203 0.109923 1.18557
2 1 4.01295 0.282117 1.32733
3 1 4.01075 -0.0132251 4.02723
4 1 1.2406 0.138503 4.08616
5 1 1.20212 3.03285 1.28138
6 1 3.94129 2.97639 1.22823
7 1 3.9802 2.82364 4.13042
8 1 1.2047 2.89037 3.97755
9 1 6.7069 0.106355 1.27822
10 1 9.6866 0.0986187 1.22397
11 1 9.5736 0.201606 4.06889
12 1 6.92066 0.2973 4.17212
13 1 6.76973 2.84986 1.34281
14 1 9.67457 2.78841 1.3214
15 1 9.84044 2.90974 4.19197
16 1 6.85217 2.78611 4.19228
17 1 12.4532 0.0542121 1.37626
18 1 12.4912 0.0817032 4.15557
19 1 12.5616 2.76606 1.36029
20 1 12.5892 2.88615 4.21311
21 1 1.05541 5.69831 1.22086
22 1 3.99519 5.70895 1.09257
23 1 4.09065 5.54052 4.01556
24 1 1.26323 5.79133 3.92526
25 1 1.28293 8.46173 1.12793
26 1 3.95762 8.70194 0.990105
27 1 3.97763 8.46007 4.0089
28 1 1.3193 8.50408 4.04492
29 1 6.92252 5.68496 1.37609
30 1 9.65981 5.57067 1.36113
31 1 9.63684 5.73093 4.23859
32 1 6.86482 5.77542 3.9925
33 1 6.80845 8.48032 1.27542
34 1 9.64437 8.65058 1.28162
35 1 9.65173 8.4249 4.12001
36 1 6.89187 8.74946 4.24111
37 1 12.4604 5.64608 1.4411
38 1 12.3416 5.68511 4.14454
39 1 12.4323 8.41301 1.24361
40 1 12.2996 8.39316 4.12423
41 1 1.24348 11.2249 1.40645
42 1 4.09022 11.4164 1.43536
43 1 4.10403 11.4484 4.16742
44 1 1.22968 11.4543 4.14751
45 1 1.21457 14.0311 1.31296
46 1 4.08193 14.0006 1.28146
47 1 4.14156 14.1645 4.27858
48 1 1.28104 14.4014 4.14326
49 1 6.87176 11.2656 1.34816
50 1 9.79724 11.2929 1.39971
51 1 9.67484 11.3023 4.21444
52 1 7.00646 11.518 4.05615
53 1 6.95085 14.0297 1.45235
54 1 9.75209 13.9715 1.45597
55 1 9.73458 14.1211 4.26209
56 1 7.02579 14.1884 4.35696
57 1 12.5302 11.2892 1.4572
58 1 12.545 11.0611 4.3035
59 1 12.5247 14.1176 1.47096
60 1 12.6891 13.9915 4.2023
61 1 1.50272 16.9631 1.3659
62 1 4.18004 16.9531 1.48704
63 1 4.21882 16.9936 4.04908
64 1 1.31592 17.1577 4.10438
65 1 1.38136 19.7728 1.2829
66 1 4.19431 19.6928 1.37107
67 1 4.30612 19.7043 4.12698
68 1 1.51377 20.0438 4.20433
69 1 6.95316 16.906 1.43575
70 1 9.74874 16.8693 1.40898
71 1 9.92462 16.9867 4.27827
72 1 7.08802 16.8898 4.25916
73 1 7.01922 19.7765 1.41691
74 1 9.79702 19.6877 1.55707
75 1 9.95196 19.7541 4.18871
76 1 7.10546 19.7942 4.16275
77 1 12.6389 19.6864 1.37227
78 1 12.6934 16.8943 4.0494
79 1 12.6005 22.6005 1.32027
80 1 12.702 19.7114 4.06805
81 1 1.45461 22.5261 1.42826
82 1 4.3156 22.6436 1.27213
83 1 4.22271 22.5232 4.04327
84 1 1.5585 22.6538 4.07873
85 1 7.03451 22.5859 1.37153
86 1 9.85451 22.5386 1.38364
87 1 9.67949 22.5635 4.23192
88 1 6.93346 22.6755 4.16462
12094 2 -0.169367 23.723 8.41607
90 1 12.582 22.5655 4.18086
91 1 1.30567 0.188723 6.90505
92 1 4.08435 -0.01051 6.81813
93 1 3.97244 0.102203 9.55683
94 1 1.20588 0.0385769 9.80162
95 1 1.38467 2.92595 6.88893
96 1 4.08027 2.78675 6.77608
97 1 4.07532 2.91412 9.60393
98 1 1.20292 3.02034 9.62314
99 1 6.87497 0.183015 6.97001
100 1 9.67417 0.148679 6.87632
101 1 9.47754 0.178122 9.7071
102 1 6.69442 0.134103 9.67298
103 1 6.74094 3.03597 6.90178
104 1 9.63699 3.15219 6.80805
105 1 9.65217 3.05331 9.53455
106 1 6.84945 2.89712 9.62534
107 1 12.5034 0.0715555 6.98587
108 1 12.2112 0.0678033 9.6798
109 1 12.4265 2.91169 6.84864
110 1 12.4686 2.85563 9.58285
111 1 1.31823 5.63172 6.90732
112 1 4.0014 5.83487 6.91729
113 1 3.96002 5.6558 9.66089
114 1 1.08361 5.75002 9.81844
115 1 1.23932 8.46284 6.7691
116 1 4.07222 8.57772 7.00037
117 1 3.97401 8.50713 9.82449
118 1 1.15794 8.54186 9.49875
119 1 6.90191 5.69692 6.76758
120 1 9.69218 5.83938 7.05951
121 1 9.88632 5.91357 9.714
122 1 7.05024 5.87479 9.64586
123 1 6.70394 8.6712 7.05824
124 1 9.66084 8.55565 6.98882
125 1 9.6922 8.64094 9.74873
126 1 6.84994 8.54833 9.82742
127 1 12.439 5.63817 7.11371
128 1 12.6122 5.81001 9.81574
129 1 12.5494 8.5505 7.01484
130 1 12.6773 8.65078 9.73148
131 1 1.29473 11.2817 6.84516
132 1 4.20451 11.2766 7.07282
133 1 3.96768 11.3003 9.69892
134 1 1.25471 11.3594 9.59721
135 1 1.1923 14.1122 6.94036
136 1 3.99068 14.165 6.93722
137 1 3.94761 14.2322 9.6585
138 1 1.11918 14.1908 9.52916
139 1 6.93925 11.3663 7.00991
140 1 9.78387 11.3752 6.94821
141 1 9.67774 11.3269 9.88132
142 1 6.89486 11.3428 9.91812
143 1 6.84026 14.1441 7.26726
144 1 9.69408 14.1605 7.0543
145 1 9.93887 14.2586 9.82184
146 1 6.96332 14.173 9.86061
147 1 12.5058 11.2073 7.04423
148 1 12.5134 11.5944 9.83966
149 1 12.3826 14.1707 6.9086
150 1 12.6579 14.3405 9.79413
151 1 1.40102 16.8283 6.88056
152 1 4.14476 16.9938 6.87989
153 1 4.15725 16.8877 9.63287
154 1 1.32074 17.1657 9.52592
155 1 1.35189 19.8734 6.86699
156 1 4.07991 19.8574 6.90682
157 1 4.13267 19.8446 9.8315
158 1 1.30377 19.8752 9.77523
159 1 7.02033 17.0891 7.09562
160 1 9.77214 17.105 6.97275
161 1 9.75062 17.0002 9.88148
162 1 6.90415 16.9956 9.70171
163 1 6.94911 19.8613 6.99549
164 1 9.79961 19.8681 7.17064
165 1 9.62193 19.7474 10.0312
166 1 6.88891 19.9209 9.74408
167 1 12.46 16.9065 6.84404
168 1 12.5413 17.0522 9.75658
169 1 12.579 19.6433 7.10044
170 1 12.5138 19.8496 9.72021
171 1 1.32241 22.9767 6.81699
172 1 4.2424 22.7009 6.9272
173 1 4.15528 22.5646 9.93315
174 1 1.33343 22.571 9.77301
175 1 6.96145 22.6214 6.97465
176 1 9.82343 22.5819 7.05856
177 1 9.80221 22.5936 9.81685
178 1 7.03785 22.6714 9.87281
179 1 12.6345 22.4989 6.88122
180 1 12.6066 22.6728 9.69306
181 1 1.24767 0.016303 12.6549
182 1 4.04671 -0.00982618 12.3586
183 1 1.31926 2.75545 12.358
184 1 4.19627 2.90767 12.4741
185 1 6.91801 0.051782 12.3053
186 1 9.73037 0.209169 12.4255
187 1 6.8426 2.96819 12.3332
188 1 9.51709 3.09637 12.3897
189 1 12.337 0.170019 12.6565
190 1 12.5558 2.93091 12.447
191 1 1.28827 5.58722 12.5756
192 1 4.03325 5.64061 12.551
193 1 1.42516 8.57067 12.5283
194 1 4.11615 8.58399 12.662
195 1 6.88672 5.82091 12.5062
196 1 9.79915 5.85816 12.4084
197 1 6.83816 8.46006 12.4706
198 1 9.79917 8.61861 12.5211
199 1 12.6522 5.68774 12.6581
200 1 12.6363 8.56927 12.5913
201 1 1.35756 11.2895 12.5027
202 1 4.23925 11.3435 12.5344
203 1 1.35529 14.0887 12.207
204 1 4.10778 13.9913 12.4868
205 1 6.96676 11.3151 12.7224
206 1 9.58294 11.3418 12.4936
207 1 6.84874 14.0965 12.6606
208 1 9.68068 14.1501 12.5969
209 1 12.467 11.3425 12.6742
210 1 12.4418 14.0737 12.5949
211 1 1.35131 16.9851 12.5304
212 1 4.12291 16.9324 12.4942
213 1 1.23 19.7718 12.6052
214 1 4.00565 19.8432 12.5512
215 1 6.95389 16.9872 12.5517
216 1 9.80219 16.9905 12.5997
217 1 6.91834 19.7892 12.5552
218 1 9.79865 19.6944 12.673
219 1 12.7453 16.8932 12.5516
220 1 12.6077 19.932 12.5387
221 1 1.36681 22.5855 12.6698
222 1 4.21781 22.5134 12.6719
223 1 7.03455 22.6657 12.6997
224 1 9.82581 22.4878 12.6501
225 1 12.6579 22.7351 12.5137
12025 2 5.56643 10.0262 -0.114803
12081 2 -0.141566 15.5902 5.42873
12035 2 5.53539 15.5106 0.00502657
15126 2 13.9408 -1.38817 13.8829
12029 2 11.0976 9.83376 -0.020608
12071 2 -0.157866 9.91813 5.52007
12042 2 2.73758 24.0559 -0.139828
12008 2 5.48071 1.39864 2.71832
12135 2 11.2576 7.10153 13.8555
12010 2 11.1763 1.38103 2.71917
12125 2 11.2738 21.2482 11.1844
15061 2 13.9293 7.10354 5.55637
12013 2 2.6941 4.39809 2.58283
12124 2 8.31991 23.918 11.2036
12128 2 8.22029 -1.20953 13.8418
12026 2 8.52969 12.7934 -0.0542876
12017 2 8.33964 4.21223 2.85315
12018 2 5.46557 7.11638 2.73508
12053 2 2.66292 -1.28693 8.34285
12020 2 10.9628 7.00433 2.75258
12113 2 5.46457 9.88075 11.228
12104 2 8.18688 1.55542 10.9474
12023 2 2.63962 9.93574 2.64848
15012 2 13.9798 4.19536 2.85984
12131 2 2.73234 4.26724 13.7667
12107 2 2.71388 7.12096 11.0741
12027 2 8.23239 10.046 2.7947
12028 2 5.44371 12.6841 2.76774
12134 2 5.46224 6.98115 13.8319
12030 2 11.3382 12.6345 2.84359
12102 2 2.75635 1.47399 11.0723
12114 2 8.28837 12.7225 11.2054
12033 2 2.80396 15.5829 2.82961
12130 2 11.128 1.59813 13.8736
12100 2 11.1998 23.9615 8.41773
12099 2 11.2311 21.0852 5.59644
12037 2 8.34713 15.4044 2.77224
12038 2 5.68253 18.4713 2.68863
12098 2 5.43678 23.9641 8.51278
12040 2 11.2602 18.3181 2.77487
12097 2 8.43965 21.1444 8.37461
15072 2 14.1122 9.91892 8.37185
12043 2 2.86318 21.0952 2.63535
12123 2 5.52753 21.1645 11.21
12096 2 8.26648 23.9432 5.7561
12095 2 5.54619 21.1733 5.55046
12047 2 8.47795 21.1792 2.81627
12048 2 5.67442 23.9031 2.7039
12115 2 11.2002 10.0025 11.089
12050 2 11.1491 23.9249 2.88836
12041 2 -0.0872958 21.1774 -0.0783684
12052 2 2.77945 1.36501 5.50723
12112 2 2.64052 12.6145 11.1116
12122 2 2.74288 23.9101 11.2111
12110 2 11.1716 4.34713 11.0865
12056 2 8.35682 1.41713 5.49393
12109 2 8.42019 7.23175 11.0627
12058 2 5.44536 1.45828 8.16068
12108 2 5.59991 4.36365 10.9455
12060 2 11.0657 1.38182 8.33605
12120 2 11.1662 15.6314 11.2472
12062 2 2.71522 7.18855 5.49081
12063 2 2.8156 4.17551 8.13334
12119 2 8.20807 18.3854 11.188
12065 2 5.41847 4.18818 5.32808
12066 2 8.37132 7.10687 5.63695
12067 2 8.30448 4.32287 8.2435
12068 2 5.46824 7.17986 8.28228
12069 2 11.0763 4.31714 5.66074
12070 2 11.2258 7.11194 8.35556
12105 2 11.1375 -1.24716 11.1389
12072 2 2.59841 12.7652 5.51505
12073 2 2.58145 9.90307 8.32584
12118 2 5.47106 15.5093 11.2156
12075 2 5.44926 9.93637 5.50487
12076 2 8.36911 12.67 5.60682
12077 2 8.26822 9.9166 8.3965
12078 2 5.46406 12.7082 8.43277
12079 2 11.1769 9.84588 5.62201
12080 2 11.1345 12.8326 8.35997
15051 2 13.8561 1.48029 5.6298
12082 2 2.78601 18.3298 5.50674
12083 2 2.64474 15.5344 8.3516
12117 2 2.57766 18.4063 11.1367
12085 2 5.557 15.472 5.65232
12086 2 8.44554 18.4148 5.63535
12087 2 8.38563 15.4505 8.44865
12088 2 5.5795 18.4491 8.38698
12089 2 11.1397 15.4552 5.54334
12090 2 11.1158 18.4486 8.54011
12111 2 -0.190118 9.93614 10.9052
12092 2 2.95036 23.846 5.51746
12093 2 2.64509 21.1579 8.32537
15001 2 13.9161 1.34028 -0.120143
12039 2 11.2449 15.4545 0.0830627
438 1 12.6819 16.9075 1.33013
12022 2 2.69817 12.7186 0.0122442
12049 2 11.2773 21.15 -0.0146552
12129 2 5.47027 1.42841 13.8023
15106 2 14.1129 7.1052 11.1274
12045 2 5.57714 21.0979 -0.12648
12046 2 8.42747 23.8787 -0.0985641
12024 2 -0.141914 12.683 2.77847
15081 2 14.0201 18.3051 5.59904
12132 2 -0.210709 7.05959 13.7879
15032 2 13.9861 15.609 2.79789
15136 2 13.8758 10.0411 13.9959
15111 2 13.9109 12.8397 11.2634
15082 2 14.0393 15.5236 8.34498
12106 2 -0.138616 4.36879 11.0407
15022 2 13.8629 9.66942 2.74115
15116 2 14.0695 18.3883 11.2166
12133 2 8.27259 4.26326 13.8767
12138 2 8.26086 9.804 13.8733
12016 2 8.28489 6.99402 -0.0239169
12019 2 11.1352 4.23811 0.143538
12146 2 2.71175 21.0464 13.9629
12006 2 8.2666 1.38093 -0.153987
12136 2 2.64382 10.0281 13.9439
12127 2 -0.159333 1.32246 13.9528
12031 2 -0.0177267 15.5679 -0.111635
226 1 4.10367 0.14852 15.2181
227 1 1.26767 0.0330592 15.3925
228 1 3.98046 2.87524 15.1921
229 1 1.20933 2.8119 15.3101
230 1 9.63501 0.122227 15.2718
231 1 6.91718 0.139821 15.3508
232 1 9.71186 2.88258 15.2664
233 1 6.83838 2.83742 15.207
234 1 12.4492 0.0378194 15.3977
235 1 12.3226 2.95364 15.158
236 1 4.08308 5.741 15.3885
237 1 1.16112 5.48759 15.4421
238 1 3.99628 8.49974 15.7433
239 1 1.21331 8.34018 15.333
240 1 9.78206 5.73524 15.1443
241 1 6.96161 5.73626 15.2085
242 1 9.60473 8.60272 15.4183
243 1 6.91319 8.48934 15.2292
244 1 12.5456 5.67161 15.4623
245 1 12.3999 8.60368 15.45
246 1 3.95025 11.3655 15.3625
247 1 1.06879 11.1636 15.2622
248 1 4.1791 14.3343 15.2798
249 1 1.48978 13.8064 15.0097
250 1 9.55473 11.2825 15.2822
251 1 6.5919 11.4437 15.4032
252 1 9.75235 14.235 15.4392
253 1 6.99651 14.2622 15.4661
254 1 12.2618 11.4235 15.5455
255 1 12.4686 14.262 15.3676
256 1 4.09899 16.9672 15.3077
257 1 1.44278 16.6901 15.2722
258 1 4.15464 19.8454 15.3262
259 1 1.46273 19.5944 15.2396
260 1 9.7769 16.9415 15.3942
261 1 6.97257 17.0469 15.2435
262 1 9.79685 19.889 15.463
263 1 7.1017 19.8551 15.3944
264 1 12.6158 17.1188 15.2171
265 1 12.6058 19.8121 15.3461
266 1 4.22887 22.6968 15.4807
267 1 1.40845 22.5735 15.4805
268 1 9.87455 22.6667 15.5277
269 1 7.03385 22.72 15.5313
270 1 12.5395 22.6369 15.343
271 1 1.16427 -0.0495691 18.145
272 1 4.10887 -0.00930544 17.9651
273 1 4.0688 0.196262 20.8922
274 1 1.22987 0.126524 20.9451
275 1 1.20469 2.6748 18.1225
276 1 4.00456 2.85944 18.0626
277 1 4.07738 3.16856 20.9589
278 1 1.30241 2.81617 20.9467
279 1 7.04433 0.170638 18.3057
280 1 9.78017 -0.0507074 18.0258
281 1 9.55257 0.0621051 20.9853
282 1 6.81817 0.187018 21.0586
283 1 6.83252 2.90447 18.1638
284 1 9.65005 2.73162 18.038
285 1 9.60828 2.76384 20.8857
286 1 6.72691 3.0617 20.9947
287 1 12.641 0.0374337 18.2273
288 1 12.3385 0.105005 21.0042
289 1 12.5583 2.87361 18.0938
290 1 12.3498 2.89476 20.8253
291 1 1.20183 5.56241 18.1999
292 1 4.03556 5.59115 18.1672
293 1 4.03533 6.39966 20.9733
294 1 1.14818 5.51725 20.9745
295 1 1.24772 8.53646 18.0348
296 1 4.19583 8.49778 18.846
297 2 4.22552 8.62335 21.0484
298 1 1.8946 8.49019 20.8534
299 1 6.99959 5.49452 18.0415
300 1 9.71951 5.64669 18.131
301 1 9.58438 5.54634 21.0493
302 1 6.79892 5.8246 20.8881
303 1 6.80478 8.41851 17.8212
304 1 9.64341 8.35535 18.0575
305 1 9.37261 8.24747 20.8126
306 1 6.46041 8.74757 20.9573
307 1 12.4314 5.50556 18.2409
308 1 12.4899 5.67431 21.0259
309 1 12.5475 8.41665 18.2354
310 1 12.2631 8.45887 21.0775
311 1 1.05507 11.4778 17.9455
312 1 4.07773 11.2738 18.2483
313 1 4.1684 10.9603 21.0799
314 1 1.23881 11.2456 20.9154
315 1 1.23096 14.2014 18.1312
316 1 3.93803 14.0455 18.1174
317 1 3.987 13.8262 20.906
318 1 1.26906 14.0941 20.949
319 1 6.91107 11.2013 18.2316
320 1 9.70091 11.2265 18.2059
321 1 9.6918 11.1101 21.08
322 1 6.92874 11.4683 21.1876
323 1 6.80626 14.0015 18.1564
324 1 9.67828 14.1627 18.1631
325 1 9.57826 14.008 20.9
326 1 6.81943 14.0536 20.9382
327 1 12.5257 11.2996 18.2954
328 1 12.5191 11.3141 21.1778
329 1 12.554 14.201 18.1973
330 1 12.7302 14.0888 20.8853
331 1 1.48815 16.8389 18.3336
332 1 4.10275 16.7589 18.1254
333 1 4.26269 16.7672 21.0343
334 1 1.29525 16.9195 21.0349
335 1 1.5626 19.8731 18.0772
336 1 4.18622 19.5395 18.296
337 1 4.17182 19.6422 20.9302
338 1 1.43735 19.6903 20.913
339 1 6.94732 16.8666 18.0878
340 1 9.74807 17.0246 18.2257
341 1 9.75485 17.1562 20.9601
342 1 6.97977 16.7968 20.9064
343 1 6.99973 19.7988 18.1929
344 1 9.76591 19.8299 18.2461
345 1 9.89873 20.0058 21.0723
346 1 7.10737 19.5951 21.0418
347 1 12.4968 17.1073 18.0596
348 1 12.9549 17.0969 20.8223
349 1 12.7303 19.8728 18.2305
350 1 12.6158 19.8499 20.9522
351 1 1.4199 22.5922 18.2339
352 1 4.2235 22.5365 18.179
353 1 4.30755 22.6709 21.0205
354 1 1.43289 22.5381 21.0612
355 1 7.00045 22.6315 18.2377
356 1 9.88782 22.6553 18.325
357 1 10.0788 22.772 21.1516
358 1 7.23186 22.5462 21.1925
359 1 12.556 22.7103 18.2076
360 1 12.7326 22.7167 21.1009
361 1 1.28159 0.0655796 23.6761
362 1 3.95581 0.279666 23.7657
363 1 4.17248 0.0781648 26.4621
364 1 1.17441 -0.0310491 26.6372
365 1 1.19058 2.73637 23.8239
366 1 3.94333 3.00133 23.6822
367 1 4.17798 2.95537 26.5534
368 1 1.34697 2.80854 26.6527
369 1 6.9366 0.235815 23.699
370 1 9.67031 0.140209 23.8334
371 1 9.5587 0.056878 26.4539
372 1 6.88046 0.000729872 26.5209
373 1 6.80442 3.05808 23.9949
374 1 9.63308 2.95626 23.6978
375 1 9.67953 2.78176 26.6227
376 1 6.86944 2.80994 26.6958
377 1 12.4465 0.0975201 23.8509
378 1 12.3328 0.0125286 26.6384
379 1 12.489 2.88329 23.7094
380 1 12.3542 2.7745 26.7049
381 1 0.978781 5.44548 23.8923
382 1 3.97377 5.83462 23.8069
383 1 4.18856 5.74071 26.5576
384 1 1.1672 5.60331 26.6257
385 1 1.24646 8.3766 23.8918
386 1 3.8862 8.65846 23.1183
387 1 4.07286 8.43478 26.2617
388 1 1.32633 8.44052 26.4895
389 1 6.80082 5.87748 23.6154
390 1 9.67926 5.7054 23.7815
391 1 9.73272 5.80719 26.7017
392 1 6.95399 5.6785 26.5658
393 1 6.71261 8.51043 23.7592
394 1 9.65049 8.57015 23.7467
395 1 9.65717 8.55811 26.7221
396 1 6.99757 8.3983 26.4576
397 1 12.3939 5.41421 23.9858
398 1 12.5446 5.58243 26.7027
399 1 12.4626 8.34302 23.8655
400 1 12.4573 8.3839 26.6849
401 1 1.42151 11.2087 23.7338
402 1 4.1358 11.5203 23.872
403 1 4.18159 11.242 26.6313
404 1 1.18981 11.3719 26.6701
405 1 1.42186 14.1066 23.7224
406 1 4.15089 14.2066 23.7906
407 1 4.18068 14.1602 26.7048
408 1 1.31971 14.1956 26.6035
409 1 7.12851 11.5277 24.1298
410 1 9.884 11.3707 23.7905
411 1 9.7282 11.4819 26.6462
412 1 6.89034 11.5112 26.7488
413 1 6.87302 14.336 23.9299
414 1 9.71783 13.8924 24.1249
415 1 9.95721 14.2665 26.8826
416 1 7.11065 14.2904 26.7328
417 1 12.5998 11.1113 23.9968
418 1 12.5505 11.198 26.7968
419 1 12.7711 14.0004 24.081
420 1 12.6238 14.174 26.8671
421 1 1.28612 16.9137 23.7978
422 1 4.25849 17.0504 23.855
423 1 4.16235 17.034 26.6131
424 1 1.35071 17.0505 26.5863
425 1 1.38278 19.6872 23.9463
426 1 4.06542 19.9009 23.7834
427 1 4.2567 19.8181 26.6366
428 1 1.31327 19.8566 26.7634
429 1 7.10306 16.8914 23.6844
430 1 8.54041 18.5628 25.1405
431 1 9.92345 17.0588 26.8356
432 1 6.84697 16.9045 26.7424
433 1 6.70854 19.886 23.8027
434 1 9.88923 20.0393 23.7479
435 1 9.8051 19.9392 26.9032
436 1 7.00143 19.7696 26.7679
437 1 12.5224 16.9024 26.5121
12150 2 11.1428 24.0704 14.0366
439 1 12.7166 19.4077 23.8175
440 1 12.6366 19.806 26.7008
441 1 1.40257 22.5208 23.7777
442 1 4.13895 22.6212 23.9241
443 1 3.99775 22.657 26.5576
444 1 1.32849 22.6108 26.581
445 1 7.11011 22.6256 23.9464
446 1 9.91929 22.5874 23.9686
447 1 9.73851 22.6394 26.7033
448 1 6.95817 22.5791 26.7129
449 1 12.7672 22.5458 24.0669
12147 2 -0.0582117 23.9475 13.9958
12144 2 5.44067 18.369 13.8
12250 2 11.3073 23.9964 25.277
12139 2 5.45376 12.7956 13.8824
12036 2 8.46641 18.3785 27.9983
15152 2 13.979 -1.41113 19.5533
12227 2 8.48296 9.92853 25.2816
12249 2 11.3472 21.1429 22.4216
12226 2 8.4767 12.8965 22.5066
12225 2 5.73543 10.3379 22.8599
12224 2 -0.0469965 12.9992 25.1566
12223 2 2.68585 9.94232 25.2408
12248 2 5.62371 23.8507 25.2792
12222 2 2.62044 12.7226 22.3874
12228 2 5.71746 12.9281 25.3342
15202 2 13.8781 -1.36261 25.2
12220 2 11.1806 7.01481 25.3118
12247 2 8.39507 21.0183 25.2423
15182 2 13.8782 15.5853 19.6036
12159 2 11.2019 -1.3732 16.7586
12217 2 8.37701 4.16655 25.2596
12219 2 11.1783 4.19517 22.4081
12246 2 8.53876 23.9119 22.5311
12205 2 5.40391 -1.29296 22.2764
12218 2 5.60362 6.90354 25.1851
12143 2 8.39547 15.4742 13.9343
12245 2 5.59167 21.1817 22.4122
12152 2 2.63796 1.3517 16.7417
12157 2 8.32249 -1.36484 19.519
12243 2 2.75168 21.2552 25.2026
12216 2 8.34722 7.05982 22.3823
12156 2 8.28321 1.46388 16.7001
15221 2 13.9294 12.6656 22.4857
12158 2 5.6061 1.49033 19.5202
12229 2 11.1291 9.93269 22.4562
12160 2 11.2705 1.49241 19.3994
12242 2 2.76428 23.9491 22.3057
12162 2 2.56498 6.90521 16.7613
12163 2 2.53409 4.1052 19.4771
12240 2 10.9559 18.423 25.3004
12165 2 5.41699 4.22819 16.5289
12166 2 8.35464 7.11126 16.6507
12167 2 8.33979 4.16484 19.6329
12168 2 5.72815 6.83486 19.0824
12169 2 11.0486 4.25613 16.7959
12170 2 11.0492 6.98766 19.5194
12239 1 10.1119 16.8802 23.9483
12172 2 2.63294 12.7139 16.6929
12173 2 2.35511 10.1091 19.21
12238 2 5.80989 18.3841 25.2239
12175 2 5.53045 10.0776 16.6795
12176 2 8.29083 12.7784 16.7657
12177 2 8.35508 9.9534 19.6046
12178 2 5.51109 12.6826 19.5672
12179 2 11.0045 9.87646 16.7447
12180 2 11.2159 12.8709 19.7542
12237 2 8.58231 15.7314 25.238
12182 2 2.54835 18.1976 16.8167
12183 2 2.75366 15.383 19.4992
12236 2 8.48615 18.2709 22.5701
12185 2 5.44565 15.5474 16.7362
12186 2 8.30109 18.4294 16.7382
12187 2 8.45739 15.5938 19.603
12188 2 5.64166 18.3477 19.63
12189 2 11.1625 15.5757 16.7612
12190 2 11.148 18.399 19.699
12235 2 5.53789 15.5538 22.3522
12192 2 2.79725 23.8031 16.971
12193 2 2.81505 21.0608 19.6335
6442 1 12.5643 22.6427 26.7956
12195 2 5.5776 21.1682 16.7185
12196 2 8.45208 24.0172 16.9204
12197 2 8.53569 21.2047 19.731
12198 2 5.60101 23.9353 19.6174
12199 2 11.2843 21.1255 16.8541
12200 2 11.2236 24.0324 19.6011
12233 2 2.8343 15.5171 25.2391
12202 2 2.57533 1.45384 22.3656
12215 2 5.49577 4.39504 22.4688
12232 2 2.81546 18.2746 22.3071
12194 2 -0.0216748 23.8578 19.5489
12206 2 8.36806 1.56581 22.3427
15201 2 13.8307 1.33744 22.3639
12208 2 5.50327 1.47066 25.1615
15212 2 13.8538 4.20411 25.3144
12210 2 10.949 1.40106 25.186
12230 2 11.3055 12.7201 25.267
12212 2 2.24283 6.73693 22.6748
12213 2 2.59577 4.08286 25.2849
12145 2 11.1376 18.3588 14.0748
12141 2 2.69127 15.4234 13.8179
12234 2 -0.0168389 18.3194 25.1528
12142 2 -0.0322546 18.2519 14.054
12221 2 -0.0726688 9.88819 22.4562
12148 2 8.40328 21.1834 14.0495
15162 2 13.8488 4.30055 19.6511
15211 2 13.9858 6.98626 22.5462
15181 2 14.0797 18.3115 16.6909
12191 2 0.0882301 20.9507 16.6963
12231 2 -0.150034 15.5049 22.1403
12161 2 -0.210685 4.14949 16.6674
12032 2 2.82685 18.2618 28.0635
12149 2 5.5492 23.9631 14.1477
12015 2 5.52373 4.29686 28.0578
12012 2 2.74742 7.1568 27.9127
12002 2 2.71524 1.3312 28.0353
12140 2 10.9848 12.724 13.9501
451 1 1.51517 25.2289 1.33672
452 1 4.29799 25.6032 1.22332
453 1 4.35168 25.2487 4.08357
454 1 1.61531 25.5396 4.56603
455 1 7.04523 25.3424 1.49308
456 1 9.8444 25.2793 1.51419
457 1 9.80746 25.5102 4.33079
458 1 7.10145 25.4481 4.34698
459 1 12.8408 28.3306 1.43312
460 1 12.6932 25.3016 4.1297
461 1 1.52973 30.9012 1.5214
462 1 4.47099 28.2437 1.40867
463 1 4.24255 28.1592 4.12869
464 1 1.42943 28.1847 1.36192
465 1 1.26013 33.7963 1.30933
466 1 4.35016 31.1295 1.53853
467 1 4.30363 30.8548 4.36275
468 1 1.29601 33.6918 3.9874
469 1 7.22051 28.1475 1.36805
470 1 9.9642 28.1054 1.53135
471 1 9.83595 28.2406 4.46759
472 1 7.07201 28.3035 4.10522
473 1 7.08532 31.0526 1.44036
474 1 10.0991 30.7914 1.52291
475 1 9.90241 30.9459 4.16128
476 1 7.07745 31.1616 4.41686
477 1 12.77 31.3611 1.3034
478 1 12.6348 28.1416 4.26468
479 2 11.2199 32.3312 2.76323
480 1 12.6097 31.0843 3.90581
481 1 1.45833 36.6688 1.37062
482 1 4.04056 33.835 1.34937
483 1 4.12543 33.6605 4.16613
484 1 4.02022 36.4798 4.10361
485 2 2.73516 38.1389 2.74315
486 1 4.24213 36.6038 1.42016
487 1 4.35311 39.1624 4.21221
488 1 1.28014 36.5213 4.17947
489 1 6.71684 33.7889 1.37359
490 1 9.5545 33.2567 1.13066
491 1 8.71747 34.9236 2.65643
492 1 6.95834 33.8418 4.43587
493 1 6.93449 36.9152 1.28957
494 1 9.79651 36.9462 1.15834
495 1 9.65993 37.0105 4.2551
496 1 6.78075 36.6368 4.1196
497 1 12.2143 33.9922 1.42207
498 1 9.92446 33.5078 4.29571
499 1 12.6409 36.6619 1.31845
500 1 12.5962 36.6406 4.16686
501 1 1.38054 39.3666 1.29225
502 1 4.21739 39.3512 1.45779
503 1 2.7009 40.8195 2.85439
504 1 1.24213 39.224 4.29918
505 1 1.33572 42.4582 1.13088
506 1 4.34179 42.2333 1.13583
507 1 4.28981 42.4245 4.11031
508 1 1.23451 42.4597 4.04885
509 1 6.94153 39.7417 1.29939
510 1 9.9646 39.6444 1.19112
511 1 9.8332 39.627 3.9594
512 1 7.06674 39.392 4.09803
513 1 7.05323 42.4081 1.40325
514 1 9.87871 42.3954 1.41596
515 1 9.73312 42.3186 4.24606
516 1 6.91703 42.1543 4.10456
12295 2 11.2747 49.2181 -0.0399673
518 1 12.5911 39.3502 4.13081
519 1 12.6999 42.2961 1.36577
520 1 12.7308 42.3316 4.16421
521 1 1.55889 45.1338 1.4484
522 1 4.21776 44.9219 1.24591
523 1 4.04244 45.0809 4.0413
524 1 1.26237 45.2647 4.33691
525 1 1.40618 47.8916 1.29079
526 1 4.19185 47.9425 1.31293
527 1 4.13676 47.8009 4.1596
528 1 1.53808 48.0247 4.31088
529 1 7.17309 45.2585 1.52564
530 1 9.86628 45.2943 1.45404
531 1 10.0071 45.0677 4.23392
532 1 7.05034 44.9335 4.22884
533 1 7.01503 47.8817 1.60758
534 1 9.88785 48.0061 1.3204
535 1 9.78001 47.9256 4.15669
536 1 6.98879 47.7317 4.36164
537 1 12.8534 45.1846 1.47058
538 1 12.7268 45.155 4.26162
539 1 12.7816 47.911 1.41956
540 1 12.6056 47.8374 4.18612
541 1 1.56715 27.9087 6.81033
542 1 3.93138 25.4416 7.07537
543 1 4.16884 25.4857 9.88584
544 1 1.30069 25.3485 9.24803
545 1 6.76289 25.4786 7.15212
546 1 9.63962 25.2447 7.05484
547 1 9.82482 25.3625 9.90867
548 1 6.9824 25.2342 9.84357
549 1 12.5211 25.3717 7.01275
550 1 12.6305 25.4194 9.79961
551 1 1.34143 28.3033 4.07687
552 1 4.32848 28.0798 7.02098
553 1 4.22852 28.1531 9.91738
554 1 1.52801 27.9137 9.99119
555 1 1.48359 31.0109 4.55605
556 1 3.67888 30.7688 7.022
557 1 4.39073 31.0282 9.7997
558 1 1.77566 31.1707 10.0776
559 1 7.07914 28.211 7.01159
560 1 9.87179 28.1596 7.27436
561 1 9.85999 28.2949 10.0404
562 1 7.07407 28.1083 9.9269
563 1 6.97502 30.9261 7.1049
564 1 9.76687 31.0437 7.11061
565 1 9.75013 31.0135 9.89637
566 1 6.92222 31.0675 9.79177
567 1 12.8259 28.1652 7.05296
568 1 12.6753 28.0563 9.95426
569 1 12.4976 31.0565 7.0367
570 1 12.4587 30.996 9.73911
571 1 1.34541 36.5349 7.11932
572 1 4.0275 33.6607 7.02371
573 1 4.18525 33.8412 9.91281
574 1 1.46757 33.9682 9.73518
575 1 1.14545 39.4278 7.0388
576 1 4.09152 36.3105 6.92261
577 1 3.98882 36.6733 9.87436
578 1 1.2719 36.7125 9.83857
579 1 6.79689 33.6083 7.28476
580 1 9.73115 33.911 7.01944
581 1 9.86379 33.7203 9.8365
582 1 7.17618 33.8026 9.89183
583 1 7.1095 36.4635 6.88264
584 1 9.79637 36.927 7.0376
585 1 9.79332 36.6432 9.66059
586 1 6.89652 36.4169 10.0551
587 1 12.629 33.9267 7.10584
588 1 12.7121 33.9685 9.72859
589 1 12.7168 36.6554 7.05504
590 1 12.4947 36.8192 9.91651
591 1 4.00318 39.4772 6.82188
592 1 5.74782 37.9355 8.44856
593 1 4.11123 39.6103 9.81654
594 1 1.30094 39.4098 9.94762
595 1 1.41377 42.222 6.90162
596 1 4.26545 42.2961 6.94272
597 1 4.04569 42.519 9.76248
598 1 1.28312 42.2731 9.63622
599 1 6.98263 39.3399 6.60159
600 1 9.82845 42.4117 7.09333
601 1 9.65403 39.4293 9.6902
602 1 7.00658 39.6069 9.74721
603 1 7.0301 42.155 7.03605
604 1 9.72562 45.2075 6.97831
605 1 9.83681 42.2391 9.88839
606 1 6.94046 42.532 9.86832
607 1 12.4857 39.5262 6.98993
608 1 12.4994 39.4619 9.94688
609 1 12.5915 42.2372 7.06609
610 1 12.7188 42.1518 9.81468
611 1 1.33681 45.2546 7.01673
612 1 4.14571 45.0978 6.96019
613 1 4.17292 45.1926 9.85854
614 1 1.38817 45.113 9.90861
615 1 1.50949 48.0896 6.96375
616 1 4.09448 47.9204 7.01137
617 1 3.94875 47.9647 9.79243
618 1 1.22746 47.9105 9.85169
619 1 6.86555 45.1985 6.87457
620 1 9.73547 48.0308 7.0116
621 1 9.64007 44.9537 9.78179
622 1 7.07924 45.336 9.71157
623 1 6.97229 48.068 7.04794
12319 2 -0.0013919 40.7779 8.41467
625 1 9.90703 47.9424 9.84559
626 1 7.02203 48.082 9.88831
627 1 12.631 45.106 6.89346
628 1 12.5986 45.0221 9.77577
629 1 12.5865 47.9258 6.97688
630 1 12.7222 47.9801 9.79776
631 1 1.37673 25.3484 12.1698
632 1 4.09792 25.2517 12.8034
633 1 6.79796 25.4527 12.6122
634 1 9.76768 25.4505 12.6023
635 1 12.453 25.51 12.6044
636 1 1.44958 28.2568 12.7645
637 1 4.17336 28.1939 12.6629
638 1 1.3835 30.9904 12.7631
639 1 4.36353 31.1084 12.647
640 1 6.9355 28.1033 12.709
641 1 10.0395 28.3362 12.7451
642 1 7.07471 30.7914 12.7822
643 1 9.80269 31.1196 12.6575
644 1 12.8013 28.2534 12.7756
645 1 12.5594 31.1463 12.5377
646 1 1.2747 33.7787 12.5607
647 1 4.0949 33.8952 12.7229
648 1 1.40241 36.6446 12.5609
649 1 4.45927 36.7744 12.679
650 1 7.04063 33.6562 12.748
651 1 9.78033 33.7753 12.5352
652 1 7.24182 36.5378 12.6567
653 1 9.83222 36.5313 12.6541
654 1 12.6105 33.7688 12.5388
655 1 12.6233 36.7014 12.5186
656 1 1.47187 39.6758 12.6746
657 1 4.21779 39.4035 12.5528
658 1 1.35449 42.328 12.5699
659 1 4.20949 42.29 12.5511
660 1 6.91842 39.3533 12.6017
661 1 9.83382 39.4456 12.4848
662 1 6.93023 42.2505 12.527
663 1 9.78171 42.2215 12.6709
664 1 12.6867 39.489 12.604
665 1 12.7446 42.3521 12.7365
666 1 1.35274 44.9745 12.7382
667 1 4.2696 45.0376 12.5931
668 1 1.30084 47.8395 12.5971
669 1 4.05541 47.91 12.4746
670 1 7.12438 45.0807 12.5248
671 1 9.88659 45.2074 12.5325
672 1 6.89407 47.9365 12.6131
673 1 9.67625 48.103 12.4444
674 1 12.5942 45.0105 12.4829
675 1 12.6453 47.838 12.6406
12363 2 11.321 49.2975 10.9872
12271 2 0.124478 37.9682 -0.176967
12253 2 2.95868 26.7769 2.78751
12362 2 5.58871 49.3205 11.2179
89 1 12.6884 25.4853 1.31507
12262 2 2.82962 35.1322 -0.0471702
12257 2 8.37999 26.7379 2.89211
12258 2 5.75722 29.6752 2.78983
12264 2 -0.128503 35.2525 2.6485
12260 2 11.1645 29.2839 2.96448
6571 1 12.5685 33.7714 4.03285
12350 2 11.0858 32.2744 11.3598
12263 2 2.79715 32.3911 2.81946
12360 2 11.2162 43.6962 11.3601
15306 2 14.049 35.1702 5.5408
12272 2 2.77192 40.8438 0.116342
12267 2 8.08654 32.6928 2.90493
12268 2 5.56937 35.2475 2.80779
12364 2 2.81354 26.6743 14.1349
12270 2 11.0405 35.6511 2.75139
12359 2 8.38237 46.5338 11.1873
12361 2 -0.190399 49.2268 11.2021
12273 2 5.54701 37.8529 5.70367
12358 2 5.61261 43.7904 11.0449
517 1 12.6159 39.4612 1.28292
15351 2 14.0576 40.6996 11.193
12277 2 8.19408 38.137 2.79831
12278 2 5.49953 40.7716 2.81966
12356 2 -0.0929249 43.7398 11.2009
12280 2 11.2348 40.8025 2.68112
12276 2 8.46038 40.967 -0.0203864
12256 2 8.47611 29.6672 0.0818259
12283 2 2.78039 43.4211 2.67544
12284 2 0.0984298 46.3573 2.69446
12254 2 -0.0842148 29.5698 2.71015
12274 2 0.0250592 40.8256 2.7853
12287 2 8.49551 43.6698 2.79729
12288 2 5.64525 46.2652 2.80013
12349 2 8.46839 35.1769 11.2489
12290 2 11.4283 46.4034 2.81714
12289 2 11.284 43.9222 0.115542
12292 2 2.84303 49.2927 2.76514
12352 2 2.8004 40.915 11.1319
12294 2 8.4326 49.26 2.80425
12345 2 11.108 26.746 11.1827
12357 2 2.73519 46.4031 11.1949
12297 2 2.77644 29.3547 5.63405
12298 2 2.80175 26.9053 8.52274
12299 1 1.29557 33.6971 6.79495
12300 2 5.55341 26.7728 5.54118
12301 2 8.38061 29.588 5.76619
12302 2 8.2829 26.7707 8.55901
12303 2 5.51068 29.6151 8.47668
12304 2 11.1302 26.7631 5.83644
12305 2 11.2165 29.4816 8.59084
12286 2 8.44777 46.4735 -0.00270286
12307 2 2.81404 35.1388 5.53628
12308 2 2.82782 32.4413 8.56851
12355 2 11.1537 38.0958 11.1684
12310 2 5.48332 32.2943 5.77174
12311 2 8.42591 35.2332 5.3338
12312 2 8.30359 32.4457 8.51822
12313 2 5.45451 35.3137 8.49383
12314 2 11.1698 32.4465 5.93139
12315 2 11.1708 35.2814 8.4036
12354 2 8.36463 40.8161 11.2296
12317 2 2.8626 40.7066 5.31885
12318 2 2.77564 37.9644 8.45916
12348 2 5.64104 32.3757 11.2088
12320 2 8.22706 37.9095 8.32972
12321 2 8.34705 40.8353 5.53512
12322 1 9.76164 39.6617 7.06177
12323 2 5.46148 40.5932 8.19592
12324 2 11.0713 38.1628 5.60335