ITEM: TIMESTEP
20000
ITEM: NUMBER OF ATOMS
17640
ITEM: BOX BOUNDS pp pp pp
-3.1455902908245131e-01 2.7654559029081977e+01
-3.8968588331413496e+00 3.3197685883314148e+02
-3.1347733133012146e-01 2.7653477331329896e+01
ITEM: ATOMS id type q x y z
1 2 2.2208 5.25003 1.77248 5.31884
2 1 -1.1104 1.10603 -2.45585 1.16004
3 1 -1.1104 1.04499 3.03301 1.15388
6 1 -1.1104 1.11555 -2.38652 3.82598
7 1 -1.1104 1.09605 3.01282 3.99062
10 1 -1.1104 1.02763 0.310686 1.09148
12 2 2.2208 5.23397 -1.11549 2.53347
13 2 2.2208 5.31897 4.54829 2.44116
14 1 -1.1104 1.10268 0.392741 3.97533
16 1 -1.1104 3.85212 -2.50158 1.07007
17 1 -1.1104 3.80521 2.99446 1.10824
18 2 2.2208 2.40303 1.59339 2.54569
19 1 -1.1104 3.77401 -2.47864 3.87872
20 1 -1.1104 3.923 3.09546 3.91692
21 2 2.2208 2.54926 -1.14731 5.35805
22 2 2.2208 2.57739 4.45283 5.35042
23 1 -1.1104 3.76822 0.197594 1.12637
24 1 -1.1104 3.83762 0.208608 3.93146
364 2 2.2208 5.31499 1.61523 -0.269324
368 2 2.2208 -0.351925 1.64048 -0.328153
8926 2 2.2208 5.29898 -3.95992 5.3002
365 2 2.2208 2.43339 -1.09749 -0.2869
366 2 2.2208 2.47736 4.39474 -0.218234
4 1 -1.1104 6.72336 -2.61863 1.14163
11 1 -1.1104 6.63285 0.31011 1.09813
8 1 -1.1104 6.57393 -2.4226 3.90022
9 1 -1.1104 6.68015 3.03907 3.86236
319 1 -1.1104 9.46095 14.2963 9.56424
15 1 -1.1104 6.75532 0.315241 3.80541
5 1 -1.1104 6.68081 3.09555 1.01335
31 2 2.2208 10.8793 1.68176 5.2514
32 1 -1.1104 12.2475 -2.54062 1.10851
33 1 -1.1104 12.3365 3.03661 1.09425
34 1 -1.1104 12.1763 -2.59704 3.84131
35 1 -1.1104 12.2059 3.05164 3.8478
36 1 -1.1104 12.3306 0.238726 1.15855
37 2 2.2208 10.8908 -1.13434 2.51617
38 2 2.2208 10.8216 4.49188 2.47363
39 1 -1.1104 12.2876 0.223999 3.90732
40 1 -1.1104 9.56554 -2.57767 1.16446
41 1 -1.1104 9.53419 3.05676 1.09594
42 2 2.2208 8.08844 1.64824 2.53761
43 1 -1.1104 9.42676 -2.5626 4.07737
44 1 -1.1104 9.52859 3.14613 3.85914
45 2 2.2208 8.07093 -1.15631 5.35267
46 2 2.2208 8.12239 4.50074 5.27974
47 1 -1.1104 9.52816 0.215006 1.17152
48 1 -1.1104 9.49165 0.245912 3.86023
369 2 2.2208 10.8931 1.66807 -0.299876
370 2 2.2208 8.06517 -1.1927 -0.193421
8928 2 2.2208 8.14564 -3.98432 2.50413
311 2 2.2208 -0.268853 21.2443 8.0533
206 1 -1.1104 12.3261 3.1239 6.68813
205 1 -1.1104 12.2345 -2.43889 6.75664
378 2 2.2208 13.6249 4.36085 -0.340069
54 2 2.2208 5.35382 7.25228 5.3411
55 2 2.2208 5.27855 12.8249 5.25184
56 1 -1.1104 1.11819 8.69502 1.17109
58 1 -1.1104 1.09654 8.68386 3.90814
60 1 -1.1104 1.10058 5.80312 1.17383
61 1 -1.1104 1.0066 11.5211 1.0419
66 2 2.2208 5.31273 10.1019 2.55592
67 1 -1.1104 1.18131 5.85144 3.90999
68 1 -1.1104 1.22164 11.5051 3.98505
71 1 -1.1104 3.89789 8.70137 1.14413
72 2 2.2208 2.55169 7.32781 2.52527
73 2 2.2208 2.48407 12.8019 2.5073
74 1 -1.1104 3.91087 8.63096 3.97585
75 2 2.2208 2.46129 9.98833 5.37134
76 1 -1.1104 3.91047 5.90115 1.12399
77 1 -1.1104 3.85183 11.4242 1.15518
79 1 -1.1104 4.04482 5.85764 3.90657
80 1 -1.1104 3.88944 11.311 3.89556
380 2 2.2208 2.41196 10.048 -0.222086
381 2 2.2208 5.24515 12.8691 -0.312154
379 2 2.2208 5.33226 7.27625 -0.27359
70 1 -1.1104 6.68441 11.4457 3.83841
57 1 -1.1104 6.6525 8.79644 1.19788
78 1 -1.1104 3.91103 11.4568 6.71678
105 2 2.2208 13.6608 7.23046 2.4818
232 2 2.2208 13.6083 10.1125 5.28797
387 2 2.2208 13.6876 10.0567 -0.33771
386 2 2.2208 10.8858 12.8968 -0.232952
63 1 -1.1104 6.73099 5.91527 1.13996
59 1 -1.1104 6.67992 8.74951 3.90203
69 1 -1.1104 6.77046 5.93017 3.87163
64 1 -1.1104 6.63353 11.5124 1.08542
84 2 2.2208 10.8921 7.3033 5.32107
85 2 2.2208 10.9081 12.9005 5.3102
86 1 -1.1104 12.232 8.63074 1.07198
87 1 -1.1104 12.2596 8.72643 3.80626
88 1 -1.1104 12.248 5.78655 1.12532
89 1 -1.1104 12.3239 11.5001 1.14878
91 2 2.2208 10.8698 10.081 2.38621
92 1 -1.1104 12.2686 5.81812 3.84677
93 1 -1.1104 12.2679 11.5987 3.91446
94 1 -1.1104 9.48043 8.68173 1.07196
95 2 2.2208 8.06385 7.37294 2.54287
96 2 2.2208 8.09785 12.8291 2.5581
97 1 -1.1104 9.43638 8.73427 3.85381
98 2 2.2208 8.09917 10.18 5.25082
99 1 -1.1104 9.51663 5.87403 1.14986
100 1 -1.1104 9.4846 11.5084 1.09578
102 1 -1.1104 9.47101 5.98052 3.96252
103 1 -1.1104 9.51128 11.5062 3.96986
385 2 2.2208 8.08796 10.0297 -0.269876
384 2 2.2208 10.9201 7.26065 -0.261185
265 1 -1.1104 12.2507 8.77647 6.73483
375 2 2.2208 2.51372 21.3462 -0.308254
135 2 2.2208 -0.258087 15.6033 2.51658
374 2 2.2208 5.34856 18.4021 -0.25302
106 2 2.2208 5.27873 18.4332 5.32643
107 1 -1.1104 1.19098 14.3334 1.13227
109 1 -1.1104 1.1367 19.9017 1.06565
113 1 -1.1104 0.936961 14.2186 3.92461
114 1 -1.1104 1.11948 19.9077 3.80892
116 1 -1.1104 1.14468 17.0716 1.12119
119 2 2.2208 5.19233 15.686 2.52014
120 2 2.2208 5.3321 21.2222 2.55032
121 1 -1.1104 1.09724 17.1112 3.80367
123 1 -1.1104 3.92766 14.2038 1.10902
125 1 -1.1104 3.97863 19.9202 1.18135
127 2 2.2208 2.53613 18.5117 2.43055
128 1 -1.1104 3.78205 14.2331 3.96728
129 1 -1.1104 3.90721 19.778 4.0072
130 2 2.2208 2.47224 15.5842 5.32392
131 2 2.2208 2.50549 21.2379 5.28782
132 1 -1.1104 3.94101 17.1402 1.22967
134 1 -1.1104 3.84031 17.0111 3.9238
373 2 2.2208 2.56236 15.6746 -0.282509
371 2 2.2208 -0.25293 18.4406 -0.300654
138 1 -1.1104 6.70194 19.931 1.07574
122 1 -1.1104 6.59613 17.0751 3.85478
139 1 -1.1104 6.75242 19.8517 3.86512
302 1 -1.1104 1.13655 19.7993 6.74059
204 2 2.2208 13.6849 15.723 5.27888
110 1 -1.1104 6.6281 14.3332 1.05933
348 2 2.2208 10.8822 18.4643 -0.255695
140 1 -1.1104 6.75002 17.1341 1.14509
115 1 -1.1104 6.63945 14.2543 3.89767
141 2 2.2208 10.8246 18.4435 5.19925
142 1 -1.1104 12.2174 14.3193 1.22245
144 1 -1.1104 12.3023 19.8066 1.14505
146 1 -1.1104 12.238 14.2973 3.98268
147 1 -1.1104 12.2826 19.8843 3.78698
148 1 -1.1104 12.3255 17.0244 1.13071
150 2 2.2208 10.8906 15.7279 2.56392
151 2 2.2208 10.9178 21.2979 2.53348
152 1 -1.1104 12.2637 17.1273 3.74053
153 1 -1.1104 9.43936 14.2971 1.11885
155 1 -1.1104 9.53494 19.9498 1.20476
157 2 2.2208 8.08333 18.5184 2.52508
158 1 -1.1104 9.48788 14.2448 3.91723
159 1 -1.1104 9.54993 19.836 3.99965
160 2 2.2208 8.10373 15.6724 5.35568
161 2 2.2208 8.06259 21.2851 5.35821
162 1 -1.1104 9.54215 17.1559 1.11069
164 1 -1.1104 9.46667 16.9855 3.88855
349 2 2.2208 8.14882 21.215 -0.283218
163 1 -1.1104 9.47639 17.045 6.71269
156 1 -1.1104 9.38878 19.8199 6.80212
347 2 2.2208 8.06833 15.6843 -0.133529
172 1 -1.1104 3.91895 -2.51768 6.77044
173 1 -1.1104 3.96758 3.12007 6.68055
166 1 -1.1104 1.13334 -2.60057 6.69105
167 1 -1.1104 1.121 3.06901 6.75676
170 1 -1.1104 1.15842 0.197956 6.74385
174 1 -1.1104 3.90521 0.292604 6.79309
175 2 2.2208 5.31869 1.67629 10.8749
176 1 -1.1104 1.17938 -2.54603 12.3274
177 1 -1.1104 1.16865 3.05918 12.3129
180 1 -1.1104 1.1385 -2.56994 9.61297
181 1 -1.1104 1.14823 2.95655 9.53598
184 1 -1.1104 1.15476 0.303836 12.3833
186 2 2.2208 5.30396 -1.12167 8.03813
187 2 2.2208 5.30855 4.44137 8.04171
188 1 -1.1104 1.11045 0.242437 9.46453
190 1 -1.1104 3.95149 -2.57495 12.3784
191 1 -1.1104 3.87736 3.09017 12.3412
192 2 2.2208 2.40462 1.68161 8.19899
193 1 -1.1104 3.96788 -2.47894 9.59663
194 1 -1.1104 3.89282 3.0739 9.46833
195 2 2.2208 2.5294 -1.09857 10.9562
196 2 2.2208 2.45891 4.43225 10.9053
197 1 -1.1104 3.95081 0.241402 12.2755
198 1 -1.1104 3.86146 0.309756 9.56339
333 2 2.2208 13.6359 15.7096 10.8786
171 1 -1.1104 6.59617 0.338937 6.62882
169 1 -1.1104 6.73774 3.11438 6.65171
168 1 -1.1104 6.68729 -2.53539 6.68863
182 1 -1.1104 6.69672 -2.53854 9.57162
178 1 -1.1104 6.75129 -2.5557 12.2606
183 1 -1.1104 6.68833 3.03695 9.44759
189 1 -1.1104 6.81125 0.245281 9.41055
8933 2 2.2208 -0.35654 -4.04346 10.9177
203 2 2.2208 13.6504 4.54196 10.9029
229 2 2.2208 13.719 1.7535 8.09181
179 1 -1.1104 6.75117 3.14155 12.2484
209 1 -1.1104 9.50034 2.99959 6.66186
207 1 -1.1104 12.3965 0.374909 6.58138
210 1 -1.1104 9.5323 0.351938 6.63852
185 1 -1.1104 6.76042 0.380412 12.3
208 1 -1.1104 9.45619 -2.4887 6.80631
211 2 2.2208 10.8922 1.71242 10.8361
212 1 -1.1104 12.3277 -2.47886 12.1999
213 1 -1.1104 12.2622 3.14278 12.2666
214 1 -1.1104 12.2023 -2.50508 9.4663
215 1 -1.1104 12.4011 3.1354 9.45431
216 1 -1.1104 12.323 0.351718 12.2468
217 2 2.2208 10.8786 -1.07507 8.05667
218 2 2.2208 10.9218 4.37987 8.09081
219 1 -1.1104 12.2828 0.305483 9.45312
220 1 -1.1104 9.47519 -2.48448 12.3378
221 1 -1.1104 9.56998 3.00997 12.2117
222 2 2.2208 8.1026 1.68696 8.0315
223 1 -1.1104 9.43697 -2.5377 9.47138
224 1 -1.1104 9.49976 3.03656 9.39244
225 2 2.2208 8.14366 -1.13965 10.8402
226 2 2.2208 8.0598 4.49699 10.8568
227 1 -1.1104 9.48752 0.236944 12.2141
228 1 -1.1104 9.53093 0.288446 9.41127
136 2 2.2208 -0.30163 21.2542 2.45139
62 1 -1.1104 1.07372 11.4373 6.75926
51 2 2.2208 -0.253583 12.8878 10.939
238 1 -1.1104 3.8843 8.6841 6.78673
236 1 -1.1104 1.12029 5.75157 6.76983
234 1 -1.1104 1.05595 8.53037 6.657
239 1 -1.1104 3.92666 5.90466 6.6779
240 2 2.2208 5.27969 7.27022 10.854
241 2 2.2208 5.34305 12.8594 10.8621
242 1 -1.1104 1.11886 8.70066 12.1847
244 1 -1.1104 1.02392 8.53694 9.50087
246 1 -1.1104 0.95442 5.96529 12.2454
247 1 -1.1104 1.23379 11.3991 12.3009
250 2 2.2208 5.36028 10.1742 8.04411
251 1 -1.1104 0.940353 5.77758 9.51374
252 1 -1.1104 1.226 11.4625 9.54738
255 1 -1.1104 3.82808 8.61866 12.263
256 2 2.2208 2.54989 7.25139 8.03468
257 2 2.2208 2.4896 12.9462 8.08581
258 1 -1.1104 3.92846 8.66174 9.43297
259 2 2.2208 2.50531 10.0884 10.9053
260 1 -1.1104 3.83247 5.93207 12.2687
261 1 -1.1104 4.02177 11.5396 12.1479
262 1 -1.1104 3.8056 5.76841 9.52031
263 1 -1.1104 3.82345 11.5388 9.42729
320 2 2.2208 8.0433 18.4352 8.17799
235 1 -1.1104 6.74195 8.68477 6.64999
245 1 -1.1104 6.70938 8.70947 9.33466
253 1 -1.1104 6.57684 5.82003 9.47004
248 1 -1.1104 6.70425 5.92456 12.2905
243 1 -1.1104 6.6614 8.70372 12.1535
52 2 2.2208 13.8066 10.1114 10.8735
296 1 -1.1104 6.78915 19.8759 12.3803
65 1 -1.1104 6.75997 11.5243 6.53216
101 1 -1.1104 9.6135 11.4872 6.6952
237 1 -1.1104 6.73201 5.89216 6.72401
266 1 -1.1104 12.2158 5.97274 6.63991
90 1 -1.1104 12.2777 11.6051 6.71054
269 1 -1.1104 9.40996 5.77671 6.73858
267 1 -1.1104 9.53227 8.71409 6.76445
254 1 -1.1104 6.77956 11.5215 9.48068
249 1 -1.1104 6.75046 11.4055 12.2929
264 1 -1.1104 9.63669 11.4606 9.51306
268 1 -1.1104 9.4109 5.81004 9.48627
270 1 -1.1104 9.51351 11.4664 12.3344
271 1 -1.1104 9.54196 5.83978 12.156
272 2 2.2208 8.08843 10.0943 10.8639
273 1 -1.1104 9.4485 8.65942 9.5039
274 2 2.2208 8.16099 12.9287 8.10785
275 2 2.2208 8.15639 7.32757 8.09679
276 2 2.2208 10.9542 7.33373 10.8602
277 2 2.2208 10.9039 12.8412 10.9346
278 1 -1.1104 12.275 8.67575 12.2755
279 1 -1.1104 12.3401 8.71469 9.50284
280 1 -1.1104 12.3798 5.97624 12.2462
281 1 -1.1104 12.2622 11.4556 12.3512
282 2 2.2208 10.967 10.0912 8.16458
283 1 -1.1104 12.2978 5.83066 9.51199
284 1 -1.1104 12.453 11.4702 9.50159
285 1 -1.1104 9.47702 8.6125 12.2493
321 1 -1.1104 9.61703 19.8749 12.3486
126 1 -1.1104 3.87673 19.8542 6.73718
124 1 -1.1104 3.93115 14.2664 6.69176
117 1 -1.1104 1.11099 17.0082 6.72834
108 1 -1.1104 1.10317 14.1888 6.70299
133 1 -1.1104 3.88087 17.0542 6.64698
294 1 -1.1104 1.16919 14.2586 9.43164
292 1 -1.1104 1.12928 17.014 9.61115
291 1 -1.1104 1.16529 19.8221 9.55142
298 1 -1.1104 1.21731 19.8984 12.2671
295 2 2.2208 5.27614 15.77 8.11797
299 1 -1.1104 1.08094 14.1745 12.4602
310 2 2.2208 2.53638 15.6809 10.9404
309 2 2.2208 2.55602 21.2072 10.8673
308 1 -1.1104 4.02795 17.0653 12.3961
307 1 -1.1104 1.1753 17.094 12.4274
305 1 -1.1104 3.97136 14.3159 9.53309
304 1 -1.1104 3.88255 17.0644 9.58072
303 2 2.2208 2.55551 18.4641 8.09837
301 1 -1.1104 3.90344 19.7509 9.46912
293 2 2.2208 5.23127 21.2831 8.02947
300 2 2.2208 5.34953 18.5714 10.9048
286 1 -1.1104 4.02114 19.7967 12.2933
287 1 -1.1104 3.88744 14.2725 12.2963
289 1 -1.1104 6.57693 17.0877 9.53056
111 1 -1.1104 6.734 14.2613 6.67746
112 1 -1.1104 6.60939 19.9009 6.65349
288 1 -1.1104 6.71534 19.8689 9.53594
306 1 -1.1104 6.81422 17.1906 12.3224
314 1 -1.1104 9.49734 17.0218 9.43749
330 1 -1.1104 12.2474 14.2303 12.2905
327 1 -1.1104 12.2674 19.8704 9.44758
28 2 2.2208 13.6331 21.3718 10.8487
331 2 2.2208 10.8576 18.411 10.9322
145 1 -1.1104 12.2742 19.9042 6.68592
324 2 2.2208 10.8373 21.1556 8.13877
332 2 2.2208 13.6691 18.5648 8.09518
323 1 -1.1104 12.2386 16.9724 9.53428
118 1 -1.1104 6.72899 17.0874 6.70466
149 1 -1.1104 12.2754 17.1111 6.66235
326 1 -1.1104 12.2977 17.029 12.3156
143 1 -1.1104 12.3654 14.4502 6.69802
325 2 2.2208 10.9037 15.67 8.06952
322 1 -1.1104 9.49648 14.2451 12.2005
328 1 -1.1104 12.2298 14.1678 9.42994
317 2 2.2208 8.05504 15.6848 10.9629
154 1 -1.1104 9.56364 14.2147 6.75419
318 1 -1.1104 9.4867 19.6595 9.62217
290 1 -1.1104 6.72659 14.4297 9.53557
315 1 -1.1104 9.48642 17.0702 12.3247
329 1 -1.1104 12.329 19.8625 12.2621
316 2 2.2208 8.0784 21.2952 10.9393
297 1 -1.1104 6.67703 14.2976 12.3707
49 2 2.2208 13.7699 1.6928 2.49892
377 2 2.2208 13.6978 -1.12911 -0.293962
27 2 2.2208 -0.281982 4.43483 2.55314
104 2 2.2208 13.7413 12.9236 2.52151
83 2 2.2208 -0.336206 12.8641 5.34259
82 2 2.2208 -0.366858 9.98193 2.51128
81 2 2.2208 -0.357002 7.24388 5.32424
382 2 2.2208 -0.269725 12.8253 -0.401871
345 2 2.2208 13.7756 21.2648 -0.291211
231 2 2.2208 13.6947 21.2426 5.31668
137 2 2.2208 -0.228821 18.4278 5.29342
8935 2 2.2208 10.8318 -3.78653 10.8994
8925 2 2.2208 2.46469 -3.96286 2.54039
338 2 2.2208 5.23528 -1.06383 13.6826
339 2 2.2208 2.56166 1.61706 13.7667
346 2 2.2208 10.8578 -1.13769 13.7092
340 2 2.2208 13.6706 1.74237 13.6507
351 2 2.2208 2.48022 7.27038 13.661
361 2 2.2208 10.8588 15.7025 13.6515
372 2 2.2208 8.14652 4.45751 -0.272089
335 2 2.2208 -0.254491 21.2895 13.6749
388 2 2.2208 5.33649 1.65788 16.449
389 1 -1.1104 1.0832 -2.55194 17.9701
390 1 -1.1104 1.11425 3.08896 17.9152
393 1 -1.1104 1.07846 -2.56781 15.1833
395 1 -1.1104 1.04061 3.00184 15.0528
401 1 -1.1104 1.11845 0.227092 17.868
403 2 2.2208 5.26713 -1.17418 19.3379
404 2 2.2208 5.28717 4.37819 19.3526
405 1 -1.1104 1.08649 0.20668 15.1515
409 1 -1.1104 3.94459 -2.57163 17.8408
410 1 -1.1104 3.96311 2.99497 17.9153
411 2 2.2208 2.49731 1.66352 19.3343
412 1 -1.1104 3.80114 -2.58871 15.1141
414 1 -1.1104 3.79988 3.01615 15.1636
416 2 2.2208 2.48746 -1.16972 16.5047
417 2 2.2208 2.4892 4.38532 16.4926
418 1 -1.1104 3.92327 0.170826 17.9012
419 1 -1.1104 3.80576 0.25968 15.1386
9019 2 2.2208 2.52199 -3.87019 24.9271
424 2 2.2208 -0.326012 1.62644 16.4562
498 1 -1.1104 12.3301 14.2653 26.1893
337 2 2.2208 -0.297695 4.33646 13.6797
8948 2 2.2208 8.06355 -3.95103 13.6333
407 1 -1.1104 6.64972 0.208132 15.0599
397 1 -1.1104 6.62421 -2.53046 15.0781
399 1 -1.1104 6.64028 3.07254 14.9088
392 1 -1.1104 6.73865 3.10686 17.8101
425 2 2.2208 -0.349838 -1.19383 19.2907
415 1 -1.1104 3.86851 2.98705 20.7375
8952 2 2.2208 2.45745 -4.01834 13.7356
402 1 -1.1104 6.69579 0.274739 17.9138
391 1 -1.1104 6.65602 -2.57407 17.9669
431 2 2.2208 10.7915 1.73877 16.4686
432 1 -1.1104 12.1775 -2.5414 17.8401
433 1 -1.1104 12.2234 3.11168 17.7978
434 1 -1.1104 12.1794 -2.6183 14.9947
436 1 -1.1104 12.2457 3.11697 14.9965
438 1 -1.1104 12.2498 0.231562 17.7975
439 2 2.2208 10.7732 -1.11218 19.299
440 2 2.2208 10.8295 4.53048 19.2688
441 1 -1.1104 12.3604 0.285377 15.0912
443 1 -1.1104 9.39555 -2.59763 17.9701
444 1 -1.1104 9.44781 3.07081 17.9471
445 2 2.2208 8.12259 1.66394 19.3527
446 1 -1.1104 9.43662 -2.52037 15.135
448 1 -1.1104 9.41373 3.0642 15.0262
450 2 2.2208 8.11112 -1.10767 16.4676
451 2 2.2208 8.02034 4.4992 16.3677
452 1 -1.1104 9.51403 0.295943 17.8612
453 1 -1.1104 9.5304 0.245604 15.0786
9086 2 2.2208 5.23826 -4.01825 16.4749
343 2 2.2208 8.0585 1.69297 13.6693
350 2 2.2208 10.8784 4.52755 13.7267
645 2 2.2208 -0.324509 21.3113 24.8327
435 1 -1.1104 12.257 -2.40827 20.5809
459 2 2.2208 13.6241 -1.13193 16.4728
615 2 2.2208 8.12705 15.5438 22.1562
342 2 2.2208 -0.173824 15.7197 13.7723
464 2 2.2208 5.25358 7.32535 16.4102
465 2 2.2208 5.33316 12.8217 16.4526
466 1 -1.1104 1.07297 8.57435 17.7969
468 1 -1.1104 1.0352 8.63287 15.0749
472 1 -1.1104 1.1514 5.85555 17.8891
473 1 -1.1104 1.02856 11.4617 17.8957
476 2 2.2208 5.24235 9.92664 19.2713
477 1 -1.1104 1.02318 5.75247 15.0785
479 1 -1.1104 1.07556 11.4605 15.0985
485 1 -1.1104 3.92619 8.64223 17.8718
486 2 2.2208 2.47407 7.17419 19.2713
487 2 2.2208 2.59607 12.8896 19.231
488 1 -1.1104 3.89949 8.64916 15.0501
490 2 2.2208 2.46939 10.0373 16.5071
491 1 -1.1104 3.96152 5.80651 17.8803
492 1 -1.1104 3.85018 11.4421 17.8367
493 1 -1.1104 3.92296 5.86719 15.0392
495 1 -1.1104 3.86993 11.469 15.0699
621 2 2.2208 -0.38126 7.24515 16.5287
458 2 2.2208 -0.307652 21.2807 19.3189
353 2 2.2208 2.51269 12.9009 13.7643
589 1 -1.1104 9.49078 14.2449 26.4077
467 1 -1.1104 6.67998 8.72887 17.9083
481 1 -1.1104 6.69628 5.89304 14.9985
483 1 -1.1104 6.72465 11.4384 15.0304
475 1 -1.1104 6.66768 11.473 17.9411
480 1 -1.1104 1.00009 11.4166 20.6621
352 2 2.2208 5.24655 10.0373 13.5974
651 2 2.2208 13.679 7.38379 19.3291
355 2 2.2208 10.9502 9.99978 13.7283
470 1 -1.1104 6.679 8.64578 14.9318
474 1 -1.1104 6.63053 5.84296 17.7658
500 2 2.2208 10.8891 7.28873 16.5297
501 2 2.2208 10.8904 12.842 16.484
502 1 -1.1104 12.2356 8.69908 17.9042
503 1 -1.1104 12.3304 8.66274 15.1926
505 1 -1.1104 12.2747 5.94298 17.8819
506 1 -1.1104 12.2551 11.451 17.9294
507 2 2.2208 10.853 10.105 19.3238
508 1 -1.1104 12.2589 5.85546 15.0881
510 1 -1.1104 12.2259 11.4455 15.172
512 1 -1.1104 9.48857 8.67497 17.8243
513 2 2.2208 8.07022 7.2613 19.187
514 2 2.2208 8.11634 12.8455 19.2701
515 1 -1.1104 9.5405 8.66991 15.0263
517 2 2.2208 8.08529 10.0789 16.5019
518 1 -1.1104 9.43883 5.90497 17.8266
519 1 -1.1104 9.42809 11.4311 17.8608
520 1 -1.1104 9.48024 5.89003 15.062
522 1 -1.1104 9.47686 11.5088 15.143
356 2 2.2208 8.14932 12.8884 13.6782
354 2 2.2208 8.16046 7.2593 13.5738
426 2 2.2208 13.6833 10.1367 16.62
336 2 2.2208 13.6732 7.32861 13.7137
587 2 2.2208 8.11907 18.4428 24.8883
358 2 2.2208 5.26814 21.3173 13.7059
527 2 2.2208 5.38469 18.4936 16.5691
528 1 -1.1104 1.17397 14.3402 17.8813
529 1 -1.1104 1.13281 19.8569 17.9449
532 1 -1.1104 1.1788 14.2835 15.1313
534 1 -1.1104 1.16384 19.8995 15.1078
540 1 -1.1104 1.04887 17.0584 17.8643
542 2 2.2208 5.33232 15.6274 19.37
543 2 2.2208 5.34075 21.3007 19.267
544 1 -1.1104 1.17535 17.0884 15.1488
548 1 -1.1104 3.97726 14.2235 17.8653
549 1 -1.1104 3.89457 19.9032 17.9052
550 2 2.2208 2.50703 18.4271 19.3774
551 1 -1.1104 3.88778 14.2917 15.1244
553 1 -1.1104 3.92517 19.892 15.1225
555 2 2.2208 2.52541 15.6936 16.535
556 2 2.2208 2.50016 21.2199 16.4995
557 1 -1.1104 3.9043 17.111 18.0018
558 1 -1.1104 3.985 17.0303 15.1199
359 2 2.2208 5.31064 15.6908 13.738
456 2 2.2208 -0.240826 18.4358 16.4709
357 2 2.2208 2.59741 18.4215 13.7262
538 1 -1.1104 6.63452 19.9161 15.1413
531 1 -1.1104 6.83802 19.861 17.8737
541 1 -1.1104 6.59968 17.0647 17.954
536 1 -1.1104 6.77385 14.2652 15.1515
530 1 -1.1104 6.74153 14.3086 18.0713
546 1 -1.1104 6.64228 17.0759 15.0235
563 2 2.2208 10.8539 18.5012 16.455
564 1 -1.1104 12.3441 14.2566 17.938
565 1 -1.1104 12.3462 19.846 17.9025
566 1 -1.1104 12.2883 14.2959 15.1576
568 1 -1.1104 12.2436 19.8797 15.2087
570 1 -1.1104 12.2819 17.05 17.7721
571 2 2.2208 10.9344 15.6369 19.2056
572 2 2.2208 10.9818 21.2314 19.2491
573 1 -1.1104 12.3151 17.1398 14.9924
575 1 -1.1104 9.57476 14.2766 17.8493
576 1 -1.1104 9.53323 19.8388 17.95
577 2 2.2208 8.10972 18.4594 19.3268
578 1 -1.1104 9.51103 14.2926 15.029
580 1 -1.1104 9.42217 19.8872 15.0609
582 2 2.2208 8.08606 15.6525 16.6371
583 2 2.2208 8.03697 21.2749 16.4727
584 1 -1.1104 9.41856 17.1293 17.8783
585 1 -1.1104 9.43963 17.0187 15.1686
457 2 2.2208 -0.367793 15.695 19.1959
360 2 2.2208 10.9411 21.3204 13.6893
362 2 2.2208 8.104 18.4529 13.7458
619 2 2.2208 13.6923 15.7269 16.4684
590 1 -1.1104 9.46366 19.7979 26.3737
396 1 -1.1104 1.17682 3.09937 20.6568
413 1 -1.1104 3.85254 -2.59796 20.7572
420 1 -1.1104 3.91354 0.16339 20.7097
394 1 -1.1104 1.01355 -2.52541 20.7268
620 1 -1.1104 9.50732 17.0324 26.3025
406 1 -1.1104 1.02381 0.276449 20.5751
591 2 2.2208 5.36007 1.61097 22.0942
592 1 -1.1104 1.09845 -2.50063 23.5127
593 1 -1.1104 0.996848 3.01769 23.4792
596 1 -1.1104 1.06175 -2.53219 26.2108
597 1 -1.1104 1.12367 3.11724 26.3244
600 1 -1.1104 0.932025 0.285321 23.3833
602 2 2.2208 5.28278 -1.15853 25.0051
603 2 2.2208 5.31353 4.39118 24.8949
604 1 -1.1104 1.03772 0.281278 26.1646
606 1 -1.1104 3.88537 -2.46572 23.4776
607 1 -1.1104 4.04256 3.05733 23.4202
608 2 2.2208 2.47156 1.66154 24.858
609 1 -1.1104 3.80998 -2.53084 26.2846
610 1 -1.1104 3.89851 3.13515 26.2617
611 2 2.2208 2.44022 -1.15201 22.1413
612 2 2.2208 2.4987 4.46843 22.0977
613 1 -1.1104 3.81304 0.301814 23.5445
614 1 -1.1104 3.90838 0.237171 26.3232
626 2 2.2208 -0.328029 4.5047 24.8115
624 2 2.2208 -0.392894 -1.1103 24.972
598 1 -1.1104 6.78373 -2.58301 26.3196
400 1 -1.1104 6.67771 3.01423 20.6777
599 1 -1.1104 6.70983 2.96751 26.2635
605 1 -1.1104 6.70228 0.211185 26.3853
709 1 -1.1104 6.70029 14.1237 23.485
684 2 2.2208 -0.283843 10.0223 24.8545
654 2 2.2208 13.7102 1.6496 24.8634
449 1 -1.1104 9.44733 3.10996 20.6937
454 1 -1.1104 9.47408 0.344673 20.6977
408 1 -1.1104 6.72409 0.11368 20.7088
398 1 -1.1104 6.63102 -2.59302 20.8454
437 1 -1.1104 12.1189 3.03174 20.6322
442 1 -1.1104 12.2791 0.3251 20.6233
447 1 -1.1104 9.4486 -2.59054 20.8134
601 1 -1.1104 6.6767 0.301399 23.5812
594 1 -1.1104 6.70583 -2.53156 23.6503
595 1 -1.1104 6.73949 3.10178 23.5455
627 2 2.2208 10.9028 1.68156 22.0573
628 1 -1.1104 12.2253 -2.64406 23.5143
629 1 -1.1104 12.1908 3.02855 23.4952
630 1 -1.1104 12.2933 -2.53976 26.3812
631 1 -1.1104 12.1981 3.00419 26.2823
632 1 -1.1104 12.2511 0.268018 23.4663
633 2 2.2208 10.938 -1.13921 24.8852
634 2 2.2208 10.765 4.48226 24.8175
635 1 -1.1104 12.2152 0.23853 26.3183
636 1 -1.1104 9.42828 -2.62125 23.5845
637 1 -1.1104 9.42444 3.05579 23.4331
638 2 2.2208 8.13328 1.63091 24.9296
639 1 -1.1104 9.53794 -2.61118 26.3439
640 1 -1.1104 9.4335 3.11239 26.2573
641 2 2.2208 8.05148 -1.15406 22.193
642 2 2.2208 8.09915 4.50317 22.1183
643 1 -1.1104 9.54594 0.237886 23.4757
644 1 -1.1104 9.47905 0.174268 26.2935
460 2 2.2208 13.8404 21.3821 16.4435
482 1 -1.1104 6.71794 5.85216 20.6012
494 1 -1.1104 3.87399 5.7545 20.6932
496 1 -1.1104 3.82647 11.331 20.7476
489 1 -1.1104 3.89252 8.49751 20.6044
478 1 -1.1104 1.07325 5.83209 20.7413
562 1 -1.1104 9.52054 19.8846 23.4814
469 1 -1.1104 1.13092 8.55087 20.6415
656 2 2.2208 5.28428 7.20485 22.018
657 2 2.2208 5.24722 12.7914 22.2
658 1 -1.1104 1.11122 8.63663 23.5426
660 1 -1.1104 1.05612 8.58747 26.3532
662 1 -1.1104 1.12077 5.82315 23.4945
663 1 -1.1104 1.02836 11.3379 23.3312
666 2 2.2208 5.28841 10.0513 24.86
667 1 -1.1104 1.14607 5.81372 26.3308
668 1 -1.1104 1.0952 11.3606 26.2208
671 1 -1.1104 3.92966 8.66148 23.4085
672 2 2.2208 2.54447 7.21125 24.8658
673 2 2.2208 2.49193 12.7556 24.7581
674 1 -1.1104 3.88387 8.63184 26.2703
675 2 2.2208 2.51314 10.0024 22.0295
676 1 -1.1104 3.80163 5.92284 23.4042
677 1 -1.1104 3.85975 11.4355 23.5006
678 1 -1.1104 3.99036 5.80495 26.3223
679 1 -1.1104 3.90202 11.4677 26.3436
471 1 -1.1104 6.70855 8.50046 20.7573
659 1 -1.1104 6.78747 8.65526 23.5448
664 1 -1.1104 6.73497 5.87289 23.4854
670 1 -1.1104 6.57248 11.4154 26.1978
665 1 -1.1104 6.71676 11.4389 23.5269
661 1 -1.1104 6.80797 8.6065 26.3032
617 1 -1.1104 9.53017 17.0162 23.5564
708 2 2.2208 13.6319 12.8616 24.8374
710 2 2.2208 13.6918 7.2258 24.9536
516 1 -1.1104 9.53596 8.68794 20.6335
484 1 -1.1104 6.56359 11.3873 20.6944
509 1 -1.1104 12.3031 5.92102 20.6579
511 1 -1.1104 12.1591 11.4709 20.7111
669 1 -1.1104 6.69867 5.81676 26.3375
504 1 -1.1104 12.305 8.71023 20.7177
521 1 -1.1104 9.50799 5.88008 20.6534
523 1 -1.1104 9.42672 11.465 20.7183
687 1 -1.1104 9.39602 11.4206 26.338
688 1 -1.1104 9.51161 5.89881 26.2927
689 1 -1.1104 9.49558 11.5277 23.5171
690 1 -1.1104 9.42412 5.84792 23.488
691 2 2.2208 8.13008 10.088 22.1308
692 1 -1.1104 9.512 8.63585 26.2796
693 2 2.2208 8.08136 12.8208 24.964
694 2 2.2208 8.11145 7.28839 24.8737
695 2 2.2208 10.864 7.29039 22.0936
696 2 2.2208 10.819 12.9217 22.1338
697 1 -1.1104 12.3231 8.68782 23.4463
698 1 -1.1104 12.3728 8.65456 26.2248
699 1 -1.1104 12.2047 5.83057 23.5968
700 1 -1.1104 12.2308 11.4783 23.5079
701 2 2.2208 10.9515 10.1126 24.8849
702 1 -1.1104 12.2581 5.79276 26.2558
703 1 -1.1104 12.1873 11.4684 26.2543
704 1 -1.1104 9.54883 8.72429 23.3817
718 1 -1.1104 6.63341 19.9042 23.3539
547 1 -1.1104 6.67885 16.9658 20.813
545 1 -1.1104 1.149 16.9936 20.7685
554 1 -1.1104 3.98368 19.778 20.7051
535 1 -1.1104 1.17522 19.8291 20.7589
552 1 -1.1104 3.99254 14.1499 20.7156
560 1 -1.1104 12.2864 17.0468 26.2733
499 1 -1.1104 12.2716 19.8151 26.3152
533 1 -1.1104 1.19947 14.1535 20.6608
559 1 -1.1104 3.84175 16.8964 20.7455
647 2 2.2208 2.54063 15.5834 22.0639
649 2 2.2208 2.54499 21.2464 22.1533
652 1 -1.1104 4.01442 16.9417 23.4768
655 1 -1.1104 1.08299 17.0493 23.4808
681 1 -1.1104 3.79858 14.2594 26.3223
682 1 -1.1104 3.90154 17.0064 26.2889
683 2 2.2208 2.49853 18.3664 24.8891
686 1 -1.1104 3.97031 19.9172 26.3479
705 2 2.2208 5.29523 18.3889 22.1177
706 1 -1.1104 1.06314 14.223 23.3939
707 1 -1.1104 1.1593 19.9496 23.4124
711 1 -1.1104 3.87538 19.8056 23.4855
713 1 -1.1104 3.86355 14.1761 23.5875
715 1 -1.1104 1.12227 19.7746 26.1878
716 1 -1.1104 1.05747 16.8999 26.2811
717 1 -1.1104 1.00322 14.1347 26.2032
719 2 2.2208 5.34947 21.2487 24.8819
720 2 2.2208 5.40001 15.5762 24.8991
712 1 -1.1104 6.74083 14.1811 26.3578
714 1 -1.1104 6.71847 16.9287 26.3909
588 1 -1.1104 6.65054 19.7514 26.1911
430 2 2.2208 13.6875 15.7905 22.0359
569 1 -1.1104 12.3076 19.9442 20.7474
455 2 2.2208 13.7735 18.4213 24.8416
526 2 2.2208 10.9128 21.2436 24.878
574 1 -1.1104 12.2102 17.1353 20.5167
579 1 -1.1104 9.51772 14.2323 20.6786
586 1 -1.1104 9.44066 17.0685 20.698
463 1 -1.1104 12.3303 14.2984 23.3964
525 2 2.2208 10.9572 15.5908 24.9268
537 1 -1.1104 6.75422 14.2262 20.7503
680 1 -1.1104 6.69461 17.0286 23.532
561 1 -1.1104 9.37991 14.2221 23.5578
462 2 2.2208 10.89 18.4525 22.0773
524 1 -1.1104 12.2615 17.0533 23.4876
567 1 -1.1104 12.2748 14.2887 20.7355
616 2 2.2208 8.11584 21.2748 22.004
581 1 -1.1104 9.53425 19.8684 20.7526
539 1 -1.1104 6.67699 19.845 20.584
497 1 -1.1104 12.2955 19.7856 23.4795
429 2 2.2208 13.713 4.54024 16.4728
650 2 2.2208 13.681 12.8958 19.3376
648 2 2.2208 -0.333409 12.8139 16.4777
363 2 2.2208 13.6992 18.5456 13.682
341 2 2.2208 5.29085 4.5063 13.6401
8946 2 2.2208 -0.265704 -3.8627 27.5781
721 2 2.2208 5.26705 24.1291 5.24086
722 2 2.2208 5.25638 29.7631 5.34154
723 1 -1.1104 1.11333 25.4148 1.1162
724 1 -1.1104 1.08947 25.348 3.93637
725 1 -1.1104 1.15631 22.6996 1.24539
726 1 -1.1104 1.0841 28.304 1.21107
727 2 2.2208 5.26787 26.8189 2.56541
728 1 -1.1104 1.12959 22.5507 3.92751
729 1 -1.1104 1.10346 28.274 4.00331
730 1 -1.1104 3.88658 25.4683 1.0903
731 2 2.2208 2.49578 24.064 2.53394
732 2 2.2208 2.53398 29.6327 2.49924
733 1 -1.1104 3.91419 25.5212 3.89132
734 2 2.2208 2.48752 26.8403 5.34838
735 1 -1.1104 3.87933 22.6981 1.20584
736 1 -1.1104 3.92487 28.211 1.13701
737 1 -1.1104 3.95904 22.62 3.86548
738 1 -1.1104 3.91015 28.3091 3.88743
1014 2 2.2208 8.05692 40.8513 8.0817
1028 2 2.2208 10.8771 46.4829 10.7935
1446 1 -1.1104 12.2636 47.9434 3.83978
740 2 2.2208 -0.269205 29.6449 5.26375
1070 2 2.2208 5.26146 29.5697 -0.222142
1460 1 -1.1104 9.45361 47.8418 3.88319
745 1 -1.1104 6.55667 28.2182 1.22544
743 1 -1.1104 6.79334 25.6596 3.80395
746 1 -1.1104 6.72352 22.7558 3.91214
742 1 -1.1104 6.71197 25.3373 1.09841
747 1 -1.1104 6.76496 28.281 3.91853
865 1 -1.1104 1.03597 28.2883 6.68622
870 1 -1.1104 3.80562 28.3859 6.67892
744 1 -1.1104 6.68556 22.6846 1.18306
748 2 2.2208 10.9862 24.0227 5.3904
749 2 2.2208 10.9416 29.6367 5.26497
750 1 -1.1104 12.3774 25.4197 1.14141
751 1 -1.1104 12.3337 25.5147 3.92725
752 1 -1.1104 12.3476 22.587 1.04556
753 1 -1.1104 12.2081 28.1921 1.15443
754 2 2.2208 10.8546 26.7943 2.50228
755 1 -1.1104 12.3285 22.7336 3.98693
756 1 -1.1104 12.285 28.2851 3.85382
757 1 -1.1104 9.54829 25.4885 1.11724
758 2 2.2208 8.0541 24.0606 2.52496
759 2 2.2208 8.07991 29.5302 2.502
760 1 -1.1104 9.58045 25.4247 3.92517
761 2 2.2208 8.07743 26.8094 5.31997
762 1 -1.1104 9.49645 22.7213 1.11109
763 1 -1.1104 9.38973 28.1819 1.18635
764 1 -1.1104 9.50528 22.6843 3.87089
765 1 -1.1104 9.48306 28.2206 3.89262
1072 2 2.2208 10.843 23.9867 -0.252932
1075 2 2.2208 10.889 29.6097 -0.283929
897 1 -1.1104 12.2403 28.2173 6.65862
895 1 -1.1104 12.4398 25.4766 6.68529
896 1 -1.1104 12.3407 22.6612 6.70149
863 1 -1.1104 6.59353 25.46 6.56388
900 1 -1.1104 9.50133 28.2431 6.6154
767 2 2.2208 13.5695 29.7003 2.4944
1073 2 2.2208 8.02052 26.7845 -0.189541
769 2 2.2208 5.36367 35.3279 5.22061
770 1 -1.1104 1.2482 31.1143 1.1453
771 1 -1.1104 1.15745 36.6199 1.06302
773 1 -1.1104 1.10219 30.983 3.8105
774 1 -1.1104 1.10133 36.6509 3.88199
776 1 -1.1104 1.12167 33.9196 1.12059
777 2 2.2208 5.35264 32.3687 2.45396
778 2 2.2208 5.31955 38.0909 2.45218
779 1 -1.1104 1.17931 33.8873 3.99355
781 1 -1.1104 3.89379 30.9908 1.06795
782 1 -1.1104 3.92992 36.636 1.08106
783 2 2.2208 2.56469 35.3103 2.47795
784 1 -1.1104 3.83003 31.124 3.89085
785 1 -1.1104 3.89664 36.7513 3.94244
786 2 2.2208 2.55757 32.5629 5.27076
787 2 2.2208 2.57677 38.0962 5.24177
788 1 -1.1104 3.94717 33.8091 1.02877
789 1 -1.1104 3.98635 33.8682 3.87157
1077 2 2.2208 2.50346 32.473 -0.329082
1078 2 2.2208 5.31624 35.2471 -0.350958
1076 2 2.2208 2.54004 38.083 -0.315743
795 1 -1.1104 6.74446 33.7714 1.00069
925 1 -1.1104 3.87444 31.128 6.69327
775 1 -1.1104 6.69787 36.6112 3.7052
780 1 -1.1104 6.6591 33.7867 3.88516
794 1 -1.1104 6.68256 31.0542 3.95752
772 1 -1.1104 6.64139 36.5979 0.967128
919 1 -1.1104 1.20229 31.1176 6.64927
923 1 -1.1104 1.11892 33.8726 6.68784
920 1 -1.1104 1.18125 36.6707 6.56783
921 1 -1.1104 6.66731 31.1005 6.65045
924 1 -1.1104 6.68665 33.9576 6.66436
793 1 -1.1104 6.74961 30.9394 1.06683
796 2 2.2208 10.8687 35.2698 5.39532
797 1 -1.1104 12.2198 31.0303 0.956216
798 1 -1.1104 12.2249 36.6905 1.05738