ITEM: TIMESTEP
60000
ITEM: NUMBER OF ATOMS
17640
ITEM: BOX BOUNDS pp pp pp
-3.2566039924594004e-01 2.7665660399245514e+01
-3.8660090544067125e+00 3.3194600905440456e+02
-3.0887820542231492e-01 2.7648878205422296e+01
ITEM: ATOMS id type q x y z
1 2 2.2208 5.34034 1.68475 5.265
2 1 -1.1104 1.13174 -2.6 1.07674
3 1 -1.1104 1.13251 3.12311 1.07999
6 1 -1.1104 1.21484 -2.49709 3.86312
7 1 -1.1104 1.03906 3.05679 3.88884
10 1 -1.1104 1.02816 0.224412 0.987985
12 2 2.2208 5.27194 -1.14387 2.53994
13 2 2.2208 5.29853 4.45218 2.39331
14 1 -1.1104 1.13705 0.215847 3.92001
16 1 -1.1104 3.82031 -2.45685 1.10604
17 1 -1.1104 3.91559 3.01458 1.05259
18 2 2.2208 2.53703 1.58082 2.47867
19 1 -1.1104 3.99156 -2.39675 3.923
20 1 -1.1104 3.91786 2.99237 3.94687
21 2 2.2208 2.55605 -1.01121 5.31257
22 2 2.2208 2.51236 4.50089 5.37362
23 1 -1.1104 3.94238 0.263589 1.11164
24 1 -1.1104 4.02501 0.248756 3.90185
365 2 2.2208 2.49531 -0.991316 -0.342607
8944 2 2.2208 5.26186 -3.96028 -0.341551
368 2 2.2208 -0.274074 1.7054 -0.370024
364 2 2.2208 5.33754 1.64381 -0.307903
5 1 -1.1104 6.68186 3.01229 1.09037
8926 2 2.2208 5.28989 -3.92294 5.371
167 1 -1.1104 1.10275 3.16251 6.73923
173 1 -1.1104 3.89537 3.07836 6.75136
170 1 -1.1104 1.13849 0.367155 6.67739
11 1 -1.1104 6.78249 0.228126 1.1707
8 1 -1.1104 6.81829 -2.452 4.0228
4 1 -1.1104 6.63633 -2.54368 1.11915
9 1 -1.1104 6.71028 3.11283 3.88115
15 1 -1.1104 6.70811 0.364825 3.84175
31 2 2.2208 10.8974 1.76426 5.2828
32 1 -1.1104 12.3225 -2.56066 0.998045
33 1 -1.1104 12.2331 3.07028 1.16377
34 1 -1.1104 12.2828 -2.35948 3.821
35 1 -1.1104 12.2002 3.15752 3.90016
36 1 -1.1104 12.319 0.267649 1.09518
37 2 2.2208 10.9204 -1.0528 2.48988
38 2 2.2208 10.8218 4.54855 2.52049
39 1 -1.1104 12.3054 0.439138 3.94065
40 1 -1.1104 9.49272 -2.39944 1.10221
41 1 -1.1104 9.39515 3.15758 1.19247
42 2 2.2208 8.09516 1.68973 2.50215
43 1 -1.1104 9.61391 -2.42512 3.8617
44 1 -1.1104 9.58228 3.13253 3.96864
45 2 2.2208 8.17502 -1.06015 5.32701
46 2 2.2208 8.1536 4.47068 5.305
47 1 -1.1104 9.59001 0.384789 1.05001
48 1 -1.1104 9.47938 0.371852 3.87681
370 2 2.2208 8.16545 -1.17464 -0.316396
369 2 2.2208 10.9753 1.69627 -0.242373
209 1 -1.1104 9.48898 3.08773 6.81931
205 1 -1.1104 12.3138 -2.41899 6.63891
207 1 -1.1104 12.3495 0.364259 6.70915
210 1 -1.1104 9.58426 0.353335 6.65052
50 2 2.2208 13.6824 -0.942356 5.3613
233 2 2.2208 13.5813 4.55333 5.25781
378 2 2.2208 13.6557 4.45022 -0.293894
54 2 2.2208 5.39539 7.25933 5.22824
55 2 2.2208 5.39286 12.8514 5.26579
56 1 -1.1104 1.08522 8.63243 1.04755
58 1 -1.1104 1.06873 8.64944 3.87798
60 1 -1.1104 1.06313 5.86418 1.11051
61 1 -1.1104 1.01005 11.5283 1.04266
66 2 2.2208 5.24517 10.1504 2.45788
67 1 -1.1104 1.11192 5.90897 3.91995
68 1 -1.1104 1.10861 11.5153 3.80358
71 1 -1.1104 3.91033 8.68224 1.14313
72 2 2.2208 2.51467 7.26632 2.45985
73 2 2.2208 2.43297 12.9704 2.40129
74 1 -1.1104 3.8706 8.75327 3.87973
75 2 2.2208 2.58511 10.0961 5.26918
76 1 -1.1104 3.8655 5.92793 0.998141
77 1 -1.1104 3.8584 11.5013 0.961285
79 1 -1.1104 3.94416 5.81697 3.84486
80 1 -1.1104 4.03578 11.5236 3.82676
82 2 2.2208 -0.291949 10.1006 2.52023
381 2 2.2208 5.27863 12.8283 -0.377263
62 1 -1.1104 0.993769 11.4485 6.64688
57 1 -1.1104 6.65902 8.71395 1.04978
64 1 -1.1104 6.7602 11.522 1.07789
70 1 -1.1104 6.71714 11.4377 3.85774
63 1 -1.1104 6.67821 5.85161 1.01635
59 1 -1.1104 6.67792 8.69629 3.85588
237 1 -1.1104 6.7715 5.91445 6.54788
238 1 -1.1104 3.98977 8.7074 6.52443
78 1 -1.1104 3.92692 11.4448 6.56725
65 1 -1.1104 6.74547 11.5507 6.55103
382 2 2.2208 -0.361612 12.9356 -0.283514
69 1 -1.1104 6.7356 5.88185 3.71893
84 2 2.2208 10.9219 7.39575 5.34681
85 2 2.2208 10.9009 12.8644 5.22888
86 1 -1.1104 12.3383 8.73193 1.02024
87 1 -1.1104 12.3568 8.78657 3.85488
88 1 -1.1104 12.296 5.82525 1.15816
89 1 -1.1104 12.4126 11.5605 1.0184
91 2 2.2208 11.0056 10.1171 2.47541
92 1 -1.1104 12.2825 5.9465 3.90308
93 1 -1.1104 12.4032 11.4665 3.72218
94 1 -1.1104 9.47665 8.65977 1.1374
95 2 2.2208 8.07423 7.38454 2.42672
96 2 2.2208 8.1165 12.8761 2.46703
97 1 -1.1104 9.50277 8.75532 3.84111
98 2 2.2208 8.11687 10.1461 5.18101
99 1 -1.1104 9.44107 5.91893 1.01146
100 1 -1.1104 9.65879 11.4755 1.16083
102 1 -1.1104 9.47445 5.9784 3.90256
103 1 -1.1104 9.61103 11.5125 3.8489
384 2 2.2208 10.8818 7.31389 -0.327029
385 2 2.2208 8.02512 10.0523 -0.334088
386 2 2.2208 10.9344 12.9096 -0.374692
235 1 -1.1104 6.73264 8.69062 6.64067
90 1 -1.1104 12.3997 11.4784 6.60685
267 1 -1.1104 9.4551 8.8106 6.65877
265 1 -1.1104 12.2919 8.69128 6.63554
104 2 2.2208 13.6868 12.8945 2.42827
105 2 2.2208 13.6484 7.28789 2.43236
232 2 2.2208 13.7509 10.1245 5.18696
106 2 2.2208 5.29469 18.4681 5.17358
107 1 -1.1104 1.13626 14.343 0.956758
109 1 -1.1104 1.01385 19.8497 1.07356
113 1 -1.1104 1.12711 14.3666 3.84618
114 1 -1.1104 1.26972 19.8904 3.87283
116 1 -1.1104 1.1375 17.1076 1.03269
119 2 2.2208 5.35598 15.7146 2.41398
120 2 2.2208 5.26674 21.308 2.40293
121 1 -1.1104 1.11517 17.1979 3.75725
123 1 -1.1104 3.92098 14.3318 1.00944
125 1 -1.1104 3.87862 19.9737 1.07848
127 2 2.2208 2.54015 18.5167 2.46534
128 1 -1.1104 3.89945 14.2942 3.78074
129 1 -1.1104 3.98889 19.9633 3.79584
130 2 2.2208 2.51162 15.5256 5.23228
131 2 2.2208 2.55896 21.315 5.25221
132 1 -1.1104 3.95235 17.2013 0.948451
134 1 -1.1104 3.93743 17.0137 3.78059
375 2 2.2208 2.53993 21.2695 -0.316733
374 2 2.2208 5.32976 18.4639 -0.456018
115 1 -1.1104 6.75773 14.2662 3.83916
138 1 -1.1104 6.80213 19.8484 0.844933
140 1 -1.1104 6.75939 17.0986 0.99648
124 1 -1.1104 3.90603 14.244 6.56925
139 1 -1.1104 6.73973 19.8254 3.69326
137 2 2.2208 -0.246259 18.4828 5.1452
373 2 2.2208 2.56383 15.7072 -0.304131
163 1 -1.1104 9.50614 17.0499 6.6301
110 1 -1.1104 6.49626 14.2751 1.13374
231 2 2.2208 13.7143 21.2551 5.28199
344 2 2.2208 13.7448 15.7949 -0.314354
122 1 -1.1104 6.69215 17.1088 3.84794
141 2 2.2208 10.9523 18.497 5.23965
142 1 -1.1104 12.2323 14.3371 0.991302
144 1 -1.1104 12.3117 19.8926 0.89708
146 1 -1.1104 12.4097 14.2498 3.80314
147 1 -1.1104 12.2721 19.8644 3.77137
148 1 -1.1104 12.1697 17.1814 1.05428
150 2 2.2208 10.8547 15.6711 2.34606
151 2 2.2208 10.884 21.3001 2.31886
152 1 -1.1104 12.3826 16.994 3.78813
153 1 -1.1104 9.40693 14.2839 0.879001
155 1 -1.1104 9.4875 20.0047 1.00555
157 2 2.2208 8.11922 18.4881 2.32489
158 1 -1.1104 9.60879 14.2399 3.63001
159 1 -1.1104 9.48705 19.8665 3.80898
160 2 2.2208 8.08084 15.7299 5.23355
161 2 2.2208 8.12993 21.1875 5.12877
162 1 -1.1104 9.41905 17.1291 1.05226
164 1 -1.1104 9.58323 17.125 3.83661
348 2 2.2208 10.8009 18.535 -0.396486
349 2 2.2208 8.15473 21.2314 -0.459855
165 2 2.2208 13.7207 18.4669 2.49407
204 2 2.2208 13.7581 15.6227 5.24432
345 2 2.2208 13.5737 21.2202 -0.467395
172 1 -1.1104 3.86094 -2.54696 6.77824
166 1 -1.1104 1.1015 -2.44517 6.69023
174 1 -1.1104 3.92839 0.377648 6.74546
175 2 2.2208 5.2556 1.68163 10.8938
176 1 -1.1104 1.04922 -2.43837 12.2319
177 1 -1.1104 1.12103 3.15697 12.2758
180 1 -1.1104 1.13246 -2.36575 9.45525
181 1 -1.1104 1.02185 3.10156 9.51589
184 1 -1.1104 1.10601 0.34931 12.3016
186 2 2.2208 5.26422 -1.0925 8.05305
187 2 2.2208 5.23036 4.55635 8.02891
188 1 -1.1104 0.978146 0.270303 9.45919
190 1 -1.1104 3.90905 -2.56361 12.2931
191 1 -1.1104 3.85576 3.08109 12.3104
192 2 2.2208 2.46006 1.69418 8.16946
193 1 -1.1104 3.87129 -2.47878 9.4989
194 1 -1.1104 3.75066 2.99619 9.45232
195 2 2.2208 2.43527 -1.07633 10.9391
196 2 2.2208 2.49876 4.51711 10.8674
197 1 -1.1104 3.89037 0.225883 12.3588
198 1 -1.1104 3.80511 0.344857 9.60516
8933 2 2.2208 -0.334322 -3.80833 10.8232
201 2 2.2208 -0.270869 1.74416 10.8949
183 1 -1.1104 6.66846 3.00761 9.54821
171 1 -1.1104 6.81186 0.361327 6.65337
169 1 -1.1104 6.75258 3.09163 6.76158
179 1 -1.1104 6.56948 2.98125 12.3689
185 1 -1.1104 6.67754 0.264297 12.277
189 1 -1.1104 6.68343 0.339633 9.43155
337 2 2.2208 -0.336847 4.66249 13.6565
338 2 2.2208 5.26199 -1.10905 13.6579
8936 2 2.2208 13.7046 -3.87108 7.99638
8934 2 2.2208 8.05619 -3.88653 8.11011
229 2 2.2208 13.7415 1.72354 8.09804
203 2 2.2208 13.6804 4.46817 10.9829
168 1 -1.1104 6.63564 -2.55169 6.64041
206 1 -1.1104 12.3459 3.16075 6.70958
208 1 -1.1104 9.51168 -2.4882 6.72389
182 1 -1.1104 6.70472 -2.43967 9.48283
178 1 -1.1104 6.64684 -2.51322 12.2297
211 2 2.2208 10.9179 1.72072 10.9104
212 1 -1.1104 12.2476 -2.51996 12.2655
213 1 -1.1104 12.1996 3.1343 12.3309
214 1 -1.1104 12.2829 -2.42867 9.47623
215 1 -1.1104 12.3665 3.11467 9.46976
216 1 -1.1104 12.2365 0.278591 12.2687
217 2 2.2208 10.899 -1.08863 8.19489
218 2 2.2208 10.9233 4.48082 8.07657
219 1 -1.1104 12.3278 0.280585 9.55312
220 1 -1.1104 9.52962 -2.46137 12.2797
221 1 -1.1104 9.4387 3.1639 12.2427
222 2 2.2208 8.07823 1.76327 8.10014
223 1 -1.1104 9.46877 -2.48629 9.4569
224 1 -1.1104 9.53871 3.12088 9.4848
225 2 2.2208 8.1323 -1.06229 10.8079
226 2 2.2208 8.10499 4.45036 10.8369
227 1 -1.1104 9.48477 0.300285 12.2698
228 1 -1.1104 9.51445 0.3294 9.53631
230 2 2.2208 13.697 -1.08801 10.9714
350 2 2.2208 10.8942 4.49628 13.683
346 2 2.2208 10.858 -1.10716 13.6015
8948 2 2.2208 8.10079 -3.86621 13.6387
236 1 -1.1104 1.04038 5.88559 6.62666
234 1 -1.1104 1.15905 8.66112 6.60779
239 1 -1.1104 3.94339 6.0206 6.74276
240 2 2.2208 5.25557 7.19733 10.9247
241 2 2.2208 5.19122 12.7495 10.8665
242 1 -1.1104 1.10005 8.79295 12.2328
244 1 -1.1104 1.06679 8.64732 9.39281
246 1 -1.1104 0.985355 5.96551 12.2895
247 1 -1.1104 1.14424 11.4525 12.2086
250 2 2.2208 5.30581 10.0539 7.98517
251 1 -1.1104 1.16344 5.94508 9.45136
252 1 -1.1104 1.11086 11.4596 9.36195
255 1 -1.1104 3.91477 8.59559 12.2674
256 2 2.2208 2.45387 7.28369 8.01445
257 2 2.2208 2.47623 12.8692 7.9361
258 1 -1.1104 3.81126 8.62899 9.38572
259 2 2.2208 2.46244 10.0898 10.7981
260 1 -1.1104 3.85672 5.85157 12.3845
261 1 -1.1104 3.86901 11.3865 12.2695
262 1 -1.1104 3.80337 5.88986 9.47308
263 1 -1.1104 3.84364 11.5137 9.36277
243 1 -1.1104 6.72643 8.69025 12.2451
249 1 -1.1104 6.6765 11.4253 12.3202
245 1 -1.1104 6.58632 8.66725 9.43567
253 1 -1.1104 6.6616 5.86655 9.35657
254 1 -1.1104 6.73857 11.4883 9.36752
352 2 2.2208 5.37066 10.067 13.6193
53 2 2.2208 13.8353 12.9239 8.05359
248 1 -1.1104 6.63888 5.78028 12.2167
52 2 2.2208 13.7071 10.1433 10.8684
202 2 2.2208 13.6452 7.39941 8.12956
269 1 -1.1104 9.5067 5.92514 6.76151
266 1 -1.1104 12.2005 5.91458 6.73537
101 1 -1.1104 9.58448 11.4972 6.58009
264 1 -1.1104 9.51286 11.4765 9.34883
268 1 -1.1104 9.48554 5.88722 9.497
270 1 -1.1104 9.43096 11.5603 12.236
271 1 -1.1104 9.54228 5.90866 12.1635
272 2 2.2208 8.08344 10.1287 10.8129
273 1 -1.1104 9.45623 8.66322 9.38303
274 2 2.2208 8.09968 12.8843 7.93211
275 2 2.2208 8.09198 7.30442 8.07606
276 2 2.2208 10.916 7.31205 10.8084
277 2 2.2208 10.9458 12.881 10.8236
278 1 -1.1104 12.3193 8.6574 12.2357
279 1 -1.1104 12.2691 8.76008 9.43136
280 1 -1.1104 12.31 5.85937 12.329
281 1 -1.1104 12.2925 11.4706 12.1047
282 2 2.2208 10.8397 10.0863 8.09375
283 1 -1.1104 12.365 5.97488 9.55013
284 1 -1.1104 12.4426 11.5656 9.36125
285 1 -1.1104 9.65817 8.72991 12.2293
356 2 2.2208 8.11094 12.9923 13.6358
376 2 2.2208 13.7216 12.9161 13.7519
118 1 -1.1104 6.66637 16.999 6.7222
126 1 -1.1104 3.95347 19.8817 6.60307
108 1 -1.1104 1.10311 14.2255 6.6318
302 1 -1.1104 1.08305 19.7831 6.67909
117 1 -1.1104 1.16654 16.9665 6.58364
133 1 -1.1104 3.86294 17.0371 6.57225
313 2 2.2208 -0.236781 15.6919 7.90192
287 1 -1.1104 3.95703 14.1889 12.1943
294 1 -1.1104 1.16684 14.1668 9.48766
292 1 -1.1104 1.16047 17.0126 9.43056
291 1 -1.1104 1.15977 19.8407 9.40724
298 1 -1.1104 1.22497 19.7682 12.0933
295 2 2.2208 5.30654 15.6907 8.14573
299 1 -1.1104 1.08098 14.2986 12.3431
310 2 2.2208 2.49543 15.6639 10.8569
309 2 2.2208 2.57066 21.3144 10.7773
308 1 -1.1104 3.89212 17.0802 12.1407
307 1 -1.1104 1.12796 17.0797 12.1783
305 1 -1.1104 3.94928 14.2488 9.30407
304 1 -1.1104 3.9253 16.991 9.41571
303 2 2.2208 2.54658 18.4224 8.05659
301 1 -1.1104 3.9504 19.7797 9.37022
293 2 2.2208 5.37771 21.1794 7.94142
300 2 2.2208 5.34509 18.5268 10.7741
286 1 -1.1104 3.91002 19.8915 12.1082
297 1 -1.1104 6.71691 14.2186 12.1787
296 1 -1.1104 6.5924 19.9934 12.1428
289 1 -1.1104 6.63397 17.099 9.35444
111 1 -1.1104 6.669 14.3266 6.70859
288 1 -1.1104 6.73585 19.8694 9.35698
306 1 -1.1104 6.60209 17.0834 12.1659
290 1 -1.1104 6.66396 14.2777 9.48628
112 1 -1.1104 6.76933 19.7348 6.48552
359 2 2.2208 5.27652 15.6445 13.5251
314 1 -1.1104 9.3726 17.002 9.37496
321 1 -1.1104 9.65622 19.9141 12.2163
323 1 -1.1104 12.2598 17.1128 9.46603
143 1 -1.1104 12.4239 14.299 6.73805
154 1 -1.1104 9.57496 14.2808 6.49202
145 1 -1.1104 12.3571 19.8293 6.63193
331 2 2.2208 10.9089 18.5305 10.7892
320 2 2.2208 8.04181 18.3802 8.02568
324 2 2.2208 10.8676 21.1902 8.01746
319 1 -1.1104 9.49021 14.177 9.44643
326 1 -1.1104 12.238 17.0718 12.2914
28 2 2.2208 13.6982 21.2884 10.8314
333 2 2.2208 13.6882 15.7119 10.7879
317 2 2.2208 8.05211 15.6534 10.827
149 1 -1.1104 12.324 16.996 6.66601
156 1 -1.1104 9.59457 19.7986 6.63608
322 1 -1.1104 9.48064 14.3924 12.244
330 1 -1.1104 12.2752 14.2379 12.1818
327 1 -1.1104 12.2852 19.8979 9.52655
328 1 -1.1104 12.1981 14.3561 9.51153
325 2 2.2208 10.928 15.5939 8.02685
318 1 -1.1104 9.47268 19.8665 9.45049
315 1 -1.1104 9.40685 17.1434 12.1066
329 1 -1.1104 12.3747 19.9334 12.2555
316 2 2.2208 8.0845 21.2434 10.7131
361 2 2.2208 10.9219 15.7107 13.627
362 2 2.2208 8.0982 18.5448 13.5272
363 2 2.2208 13.6598 18.4984 13.6691
388 2 2.2208 5.37242 1.71678 16.4615
389 1 -1.1104 1.0371 -2.42555 17.7249
390 1 -1.1104 1.07642 3.18984 17.9764
393 1 -1.1104 1.05847 -2.49831 15.0271
395 1 -1.1104 1.13217 3.26502 15.0948
401 1 -1.1104 1.2801 0.35893 17.9212
403 2 2.2208 5.21009 -1.06616 19.1745
404 2 2.2208 5.39031 4.52385 19.3366
405 1 -1.1104 1.08682 0.419144 15.0299
409 1 -1.1104 3.88628 -2.49356 17.7738
410 1 -1.1104 3.96737 3.19798 17.836
411 2 2.2208 2.51246 1.76687 19.2791
412 1 -1.1104 3.81214 -2.59457 15.1612
414 1 -1.1104 3.87848 3.10965 15.1818
416 2 2.2208 2.55106 -1.01696 16.436
417 2 2.2208 2.49866 4.59012 16.5338
418 1 -1.1104 4.00245 0.387591 17.7966
419 1 -1.1104 4.00006 0.375994 15.0346
425 2 2.2208 -0.189335 -1.15411 19.2213
424 2 2.2208 -0.14834 1.77705 16.4652
427 2 2.2208 -0.303641 4.55604 19.3549
341 2 2.2208 5.27351 4.52289 13.7257
339 2 2.2208 2.54202 1.83509 13.7545
397 1 -1.1104 6.66084 -2.3651 15.0727
9087 2 2.2208 -0.349287 -3.82467 16.4333
9086 2 2.2208 5.3251 -3.88332 16.3902
415 1 -1.1104 3.9419 3.03835 20.6453
399 1 -1.1104 6.62713 3.26778 15.0928
407 1 -1.1104 6.74292 0.394293 15.098
391 1 -1.1104 6.67176 -2.40905 17.8073
402 1 -1.1104 6.70823 0.431504 17.9177
392 1 -1.1104 6.82751 3.27182 17.8772
431 2 2.2208 10.8559 1.66574 16.4354
432 1 -1.1104 12.1977 -2.48654 17.8791
433 1 -1.1104 12.2517 3.00688 17.8004
434 1 -1.1104 12.2987 -2.46249 15.0801
436 1 -1.1104 12.2212 3.09321 15.026
438 1 -1.1104 12.1908 0.330596 17.9449
439 2 2.2208 10.7788 -1.10464 19.277
440 2 2.2208 10.9138 4.40527 19.2711
441 1 -1.1104 12.4402 0.222206 15.1117
443 1 -1.1104 9.40792 -2.38417 17.8569
444 1 -1.1104 9.50728 3.0167 17.819
445 2 2.2208 8.16131 1.70141 19.3102
446 1 -1.1104 9.4587 -2.51069 15.0397
448 1 -1.1104 9.46829 3.12482 15.0894
450 2 2.2208 8.01905 -1.04595 16.4091
451 2 2.2208 8.04418 4.54278 16.3721
452 1 -1.1104 9.37455 0.341733 17.7885
453 1 -1.1104 9.5331 0.28848 15.1139
343 2 2.2208 8.07504 1.6772 13.6737
9055 2 2.2208 7.98237 -3.7643 19.2149
340 2 2.2208 13.6488 1.68455 13.6665
435 1 -1.1104 12.1888 -2.5102 20.6029
447 1 -1.1104 9.33675 -2.44362 20.6808
464 2 2.2208 5.34283 7.39391 16.4262
465 2 2.2208 5.27463 12.8835 16.4544
466 1 -1.1104 1.07285 8.78447 17.8713
468 1 -1.1104 1.09541 8.71384 15.1255
472 1 -1.1104 1.19247 6.01799 18.0079
473 1 -1.1104 1.05644 11.5703 17.9533
476 2 2.2208 5.26394 10.0769 19.3032
477 1 -1.1104 1.03496 6.00623 15.0936
479 1 -1.1104 1.17447 11.5129 15.1327
485 1 -1.1104 3.87164 8.72455 17.9937
486 2 2.2208 2.58538 7.34208 19.2804
487 2 2.2208 2.48992 13.0391 19.2877
488 1 -1.1104 4.02474 8.69042 15.1044
490 2 2.2208 2.50993 10.128 16.481
491 1 -1.1104 3.91674 5.95591 17.9337
492 1 -1.1104 3.85301 11.4941 17.8819
493 1 -1.1104 3.83505 5.88124 15.0746
495 1 -1.1104 3.89001 11.5154 15.0688
351 2 2.2208 2.49206 7.35507 13.7422
483 1 -1.1104 6.72386 11.6616 15.0042
467 1 -1.1104 6.68233 8.67309 17.9253
475 1 -1.1104 6.63327 11.4904 17.7827
481 1 -1.1104 6.70753 6.00361 15.056
471 1 -1.1104 6.71531 8.67195 20.6996
621 2 2.2208 -0.29308 7.40399 16.4241
622 2 2.2208 -0.325425 10.1983 19.2401
353 2 2.2208 2.48619 12.8679 13.6695
650 2 2.2208 13.7112 12.9488 19.2716
474 1 -1.1104 6.71236 5.99361 17.7612
470 1 -1.1104 6.74026 8.76962 14.9553
500 2 2.2208 10.8692 7.1935 16.4496
501 2 2.2208 10.8608 12.961 16.4098
502 1 -1.1104 12.3118 8.54746 17.7798
503 1 -1.1104 12.3536 8.71536 14.9915
505 1 -1.1104 12.338 5.8151 17.7942
506 1 -1.1104 12.3619 11.5036 17.8413
507 2 2.2208 10.8291 10.0533 19.1305
508 1 -1.1104 12.2687 5.97059 14.9717
510 1 -1.1104 12.2428 11.4035 15.0167
512 1 -1.1104 9.51307 8.68333 17.6966
513 2 2.2208 8.16582 7.37023 19.2131
514 2 2.2208 8.03074 12.8535 19.1676
515 1 -1.1104 9.51645 8.76988 14.9576
517 2 2.2208 8.13571 10.1588 16.3796
518 1 -1.1104 9.58432 5.83208 17.9299
519 1 -1.1104 9.5049 11.5338 17.7099
520 1 -1.1104 9.4764 5.9254 15.0364
522 1 -1.1104 9.46606 11.5855 14.9687
354 2 2.2208 8.18964 7.33737 13.5559
355 2 2.2208 10.8823 10.0923 13.5747
426 2 2.2208 13.7108 10.0526 16.4566
523 1 -1.1104 9.50113 11.4943 20.6532
504 1 -1.1104 12.319 8.57433 20.615
516 1 -1.1104 9.51508 8.66436 20.4798
521 1 -1.1104 9.51906 5.82622 20.6856
651 2 2.2208 13.628 7.18931 19.1818
527 2 2.2208 5.33331 18.4566 16.3688
528 1 -1.1104 1.11327 14.3998 17.8202
529 1 -1.1104 1.19563 19.9466 17.8035
532 1 -1.1104 1.13542 14.2832 15.0022
534 1 -1.1104 1.15859 19.9557 14.9177
540 1 -1.1104 1.14377 17.1207 17.8664
542 2 2.2208 5.27714 15.7519 19.2413
543 2 2.2208 5.27344 21.3202 19.2092
544 1 -1.1104 1.16747 17.0687 15.156
548 1 -1.1104 3.93465 14.2757 17.8381
549 1 -1.1104 3.87288 19.8514 17.779
550 2 2.2208 2.51975 18.5382 19.2676
551 1 -1.1104 3.98393 14.196 15.0057
553 1 -1.1104 3.9842 19.773 15.0148
555 2 2.2208 2.56856 15.7059 16.4289
556 2 2.2208 2.60713 21.2272 16.3866
557 1 -1.1104 3.95463 17.0112 17.856
558 1 -1.1104 3.78883 16.964 14.8928
456 2 2.2208 -0.258716 18.5772 16.4279
357 2 2.2208 2.52582 18.4443 13.5612
358 2 2.2208 5.33803 21.2986 13.6082
541 1 -1.1104 6.67236 17.1454 17.777
538 1 -1.1104 6.75218 19.9018 14.992
536 1 -1.1104 6.69584 14.3732 14.9875
546 1 -1.1104 6.63931 17.0552 14.9757
535 1 -1.1104 1.08949 19.9516 20.7119
552 1 -1.1104 3.91927 14.3974 20.5995
537 1 -1.1104 6.71709 14.2182 20.6086
531 1 -1.1104 6.64517 19.9484 17.8144
530 1 -1.1104 6.73857 14.2299 17.7809
460 2 2.2208 13.7164 21.3014 16.3447
563 2 2.2208 10.931 18.5582 16.4376
564 1 -1.1104 12.2415 14.2304 17.8778
565 1 -1.1104 12.3052 19.9485 17.7558
566 1 -1.1104 12.2624 14.3084 14.9964
568 1 -1.1104 12.3448 19.8552 15.0179
570 1 -1.1104 12.3168 17.0911 17.7736
571 2 2.2208 10.8359 15.7145 19.2178
572 2 2.2208 10.9555 21.2933 19.193
573 1 -1.1104 12.258 17.0194 15.0261
575 1 -1.1104 9.50114 14.3122 17.8167
576 1 -1.1104 9.4477 19.8228 17.7818
577 2 2.2208 8.00507 18.4665 19.2504
578 1 -1.1104 9.48748 14.4414 15.0835
580 1 -1.1104 9.51195 19.9826 14.9319
582 2 2.2208 8.0459 15.6931 16.3608
583 2 2.2208 8.1125 21.2872 16.4176
584 1 -1.1104 9.5188 17.1446 17.7461
585 1 -1.1104 9.52287 17.1804 14.8725
619 2 2.2208 13.7502 15.7194 16.4545
360 2 2.2208 10.9337 21.2681 13.6654
569 1 -1.1104 12.2554 19.8825 20.5002
574 1 -1.1104 12.2487 17.0883 20.5366
586 1 -1.1104 9.44216 17.0572 20.6076
618 2 2.2208 13.6765 18.5284 19.1538
9020 2 2.2208 5.16933 -3.80417 22.0408
9019 2 2.2208 2.50513 -3.84078 24.8452
413 1 -1.1104 3.77407 -2.50208 20.5372
406 1 -1.1104 1.06201 0.222285 20.6954
396 1 -1.1104 1.15242 3.05224 20.7649
420 1 -1.1104 3.87284 0.285432 20.6179
394 1 -1.1104 0.970589 -2.60763 20.5623
591 2 2.2208 5.26843 1.72958 22.0431
592 1 -1.1104 1.04534 -2.49778 23.4238
593 1 -1.1104 0.97601 2.99148 23.5772
596 1 -1.1104 1.13616 -2.39759 26.189
597 1 -1.1104 1.04922 3.22389 26.2086
600 1 -1.1104 1.10107 0.248649 23.4791
602 2 2.2208 5.28589 -1.05425 24.8338
603 2 2.2208 5.19082 4.42178 24.9149
604 1 -1.1104 1.11214 0.375615 26.2056
606 1 -1.1104 3.89521 -2.43333 23.5037
607 1 -1.1104 3.83821 3.08 23.4541
608 2 2.2208 2.50386 1.7691 24.866
609 1 -1.1104 3.8293 -2.46865 26.2378
610 1 -1.1104 3.86359 3.14405 26.3066
611 2 2.2208 2.48445 -1.09728 22.0813
612 2 2.2208 2.48655 4.48787 22.0066
613 1 -1.1104 3.93386 0.35393 23.4764
614 1 -1.1104 3.92484 0.324327 26.2362
624 2 2.2208 -0.256293 -1.10152 24.8014
400 1 -1.1104 6.70485 3.07261 20.681
398 1 -1.1104 6.59681 -2.37991 20.652
595 1 -1.1104 6.56354 3.07509 23.494
599 1 -1.1104 6.65273 3.09895 26.2693
605 1 -1.1104 6.69108 0.339084 26.2529
594 1 -1.1104 6.66091 -2.55993 23.4712
626 2 2.2208 -0.375905 4.44184 24.7954
366 2 2.2208 2.45328 4.48781 27.6247
9016 2 2.2208 8.04212 -3.78819 24.8775
9017 2 2.2208 10.7774 -3.77613 22.0023
423 2 2.2208 13.6465 4.58219 22.0243
408 1 -1.1104 6.69674 0.249082 20.7765
454 1 -1.1104 9.51198 0.277287 20.8054
437 1 -1.1104 12.2022 3.1618 20.6996
601 1 -1.1104 6.73315 0.24694 23.5423
598 1 -1.1104 6.59341 -2.44932 26.1754
449 1 -1.1104 9.47295 3.07209 20.7096
442 1 -1.1104 12.2626 0.327269 20.5999
627 2 2.2208 10.8508 1.74372 22.1255
628 1 -1.1104 12.2071 -2.41294 23.3885
629 1 -1.1104 12.354 3.11515 23.4776
630 1 -1.1104 12.3127 -2.4692 26.1844
631 1 -1.1104 12.2677 3.17386 26.2887
632 1 -1.1104 12.2399 0.352933 23.4384
633 2 2.2208 10.9498 -1.03676 24.8907
634 2 2.2208 10.8908 4.49314 24.8837
635 1 -1.1104 12.3261 0.352866 26.2719
636 1 -1.1104 9.46609 -2.38671 23.464
637 1 -1.1104 9.55461 3.12533 23.5754
638 2 2.2208 8.13135 1.70634 24.973
639 1 -1.1104 9.39211 -2.5678 26.2751
640 1 -1.1104 9.55242 3.06862 26.4097
641 2 2.2208 8.08652 -1.10113 22.1912
642 2 2.2208 8.07858 4.49269 22.1086
643 1 -1.1104 9.45413 0.433544 23.5743
644 1 -1.1104 9.45518 0.220726 26.2794
653 2 2.2208 13.5647 -1.06692 22.0263
654 2 2.2208 13.7245 1.72805 24.7434
8940 2 2.2208 10.8177 -3.88205 27.5767
372 2 2.2208 8.09156 4.44976 27.6991
489 1 -1.1104 3.92554 8.64061 20.685
469 1 -1.1104 1.0755 8.77859 20.662
480 1 -1.1104 1.05406 11.6427 20.7408
478 1 -1.1104 1.19579 5.98649 20.7033
494 1 -1.1104 3.98694 5.85472 20.706
421 2 2.2208 -0.271045 7.36333 22.0704
684 2 2.2208 -0.367709 10.2849 24.8409
496 1 -1.1104 3.84844 11.4622 20.6018
656 2 2.2208 5.38453 7.24815 22.0607
657 2 2.2208 5.24458 12.8729 22.0423
658 1 -1.1104 0.996079 8.7912 23.4602
660 1 -1.1104 1.11817 8.75998 26.1758
662 1 -1.1104 1.2172 5.87867 23.4194
663 1 -1.1104 1.05128 11.5606 23.3943
666 2 2.2208 5.27821 10.063 24.7605
667 1 -1.1104 1.0093 5.99995 26.1792
668 1 -1.1104 1.09754 11.6123 26.2101
671 1 -1.1104 3.97859 8.65467 23.3901
672 2 2.2208 2.47144 7.26795 24.7355
673 2 2.2208 2.45815 12.9151 24.8501
674 1 -1.1104 3.82453 8.78083 26.1639
675 2 2.2208 2.43031 10.1569 22.0788
676 1 -1.1104 3.87778 5.9389 23.4954
677 1 -1.1104 3.82419 11.4882 23.3666
678 1 -1.1104 3.92845 5.8904 26.1832
679 1 -1.1104 4.03442 11.4464 26.2223
670 1 -1.1104 6.75069 11.4054 26.1976
665 1 -1.1104 6.6474 11.5149 23.3697
380 2 2.2208 2.48947 10.0936 27.604
484 1 -1.1104 6.69219 11.4669 20.6555
661 1 -1.1104 6.63685 8.53508 26.2077
659 1 -1.1104 6.79596 8.72834 23.5276
664 1 -1.1104 6.75032 5.84908 23.5081
669 1 -1.1104 6.74 5.7169 26.2491
379 2 2.2208 5.31837 7.26618 27.5823
482 1 -1.1104 6.78207 5.91016 20.6907
708 2 2.2208 13.828 12.8274 24.9075
511 1 -1.1104 12.2536 11.4485 20.5871
509 1 -1.1104 12.3793 5.83737 20.6344
687 1 -1.1104 9.56908 11.4322 26.2749
688 1 -1.1104 9.67306 5.81689 26.2932
689 1 -1.1104 9.48256 11.4451 23.4257
690 1 -1.1104 9.51796 5.94889 23.5178
691 2 2.2208 8.1217 10.0911 21.9699
692 1 -1.1104 9.55215 8.62861 26.1704
693 2 2.2208 8.11936 12.9281 24.764
694 2 2.2208 8.16115 7.29719 24.8053
695 2 2.2208 10.9057 7.27028 22.0423
696 2 2.2208 10.8484 12.8502 21.9909
697 1 -1.1104 12.2847 8.6238 23.3938
698 1 -1.1104 12.376 8.64362 26.1928
699 1 -1.1104 12.1967 5.83515 23.4515
700 1 -1.1104 12.3023 11.4393 23.3994
701 2 2.2208 10.9468 10.0805 24.8378
702 1 -1.1104 12.3975 5.91155 26.2838
703 1 -1.1104 12.3612 11.4267 26.188
704 1 -1.1104 9.48177 8.68568 23.2602
422 2 2.2208 13.6355 10.0456 21.9765
710 2 2.2208 13.6515 7.28991 24.8322
646 2 2.2208 -0.37371 15.7296 24.8533
709 1 -1.1104 6.66897 14.283 23.4858
559 1 -1.1104 3.81721 17.1475 20.6371
554 1 -1.1104 3.95536 19.9008 20.5615
533 1 -1.1104 1.10472 14.3604 20.7029
645 2 2.2208 -0.276625 21.3056 24.9361
545 1 -1.1104 1.03885 17.1883 20.6241
647 2 2.2208 2.46938 15.7526 21.9912
649 2 2.2208 2.51548 21.3391 22.0239
652 1 -1.1104 3.918 17.1271 23.4345
655 1 -1.1104 1.04458 17.1033 23.4075
681 1 -1.1104 3.87112 14.245 26.2511
682 1 -1.1104 3.89629 17.1102 26.1575
683 2 2.2208 2.5252 18.5472 24.77
686 1 -1.1104 3.88765 19.8503 26.1036
705 2 2.2208 5.30133 18.4729 21.9812
706 1 -1.1104 1.08062 14.3507 23.4612
707 1 -1.1104 1.07594 19.8665 23.4701
711 1 -1.1104 3.9388 19.87 23.3828
713 1 -1.1104 3.86689 14.3157 23.3534
715 1 -1.1104 1.14636 19.9896 26.3117
716 1 -1.1104 1.17426 17.1623 26.2511
717 1 -1.1104 1.02005 14.3879 26.2085
719 2 2.2208 5.37915 21.2614 24.7368
720 2 2.2208 5.26181 15.6891 24.8434
623 2 2.2208 -0.249662 18.6139 22.0171
714 1 -1.1104 6.73525 17.129 26.1559
712 1 -1.1104 6.7642 14.2419 26.2217
539 1 -1.1104 6.73158 19.855 20.5697
718 1 -1.1104 6.60263 19.8429 23.3019
581 1 -1.1104 9.49741 19.8365 20.5218
680 1 -1.1104 6.68491 17.0963 23.3668
588 1 -1.1104 6.75968 19.9142 26.1618
455 2 2.2208 13.5578 18.3725 24.774
498 1 -1.1104 12.3273 14.2294 26.2598
461 2 2.2208 13.7188 21.1578 22.0009
615 2 2.2208 8.04842 15.6871 21.9042
589 1 -1.1104 9.54186 14.2584 26.1296
524 1 -1.1104 12.2495 17.0042 23.3929
497 1 -1.1104 12.2492 19.7289 23.3507
525 2 2.2208 10.922 15.6053 24.8213
463 1 -1.1104 12.3269 14.2817 23.5148
617 1 -1.1104 9.43375 17.0235 23.3989
560 1 -1.1104 12.2785 17.028 26.2783
567 1 -1.1104 12.335 14.2138 20.7714
499 1 -1.1104 12.2291 19.766 26.0429
526 2 2.2208 10.9803 21.2409 24.6706
590 1 -1.1104 9.5116 19.8855 26.1681
547 1 -1.1104 6.62486 17.0567 20.5738
587 2 2.2208 8.12801 18.5256 24.7363
462 2 2.2208 10.838 18.4061 21.9458
616 2 2.2208 8.06674 21.2346 21.9376
579 1 -1.1104 9.49201 14.2811 20.5612
562 1 -1.1104 9.47505 19.9046 23.4277
561 1 -1.1104 9.4916 14.3208 23.3719
620 1 -1.1104 9.51626 17.041 26.2138
430 2 2.2208 13.6404 15.6944 22.0476
347 2 2.2208 8.03658 15.7157 27.5631
721 2 2.2208 5.2945 23.9813 5.1635
722 2 2.2208 5.29806 29.6764 5.25409
723 1 -1.1104 1.18187 25.5227 1.17837
724 1 -1.1104 1.11234 25.4296 3.88986
725 1 -1.1104 1.17391 22.7115 0.953481
726 1 -1.1104 1.20421 28.2697 0.902231
727 2 2.2208 5.29297 26.8107 2.41905
728 1 -1.1104 1.12109 22.696 3.81088
729 1 -1.1104 1.09381 28.2676 3.73456
730 1 -1.1104 3.93148 25.4829 0.893246
731 2 2.2208 2.53223 24.0472 2.45612
732 2 2.2208 2.51264 29.6509 2.43196
733 1 -1.1104 3.85268 25.4905 3.887
734 2 2.2208 2.45236 26.9601 5.32883
735 1 -1.1104 3.97625 22.74 1.07063
736 1 -1.1104 3.89292 28.2811 1.00829
737 1 -1.1104 3.83493 22.6387 3.82996
738 1 -1.1104 3.82195 28.2347 3.79003
1066 2 2.2208 5.38093 24.0686 -0.376889
1067 2 2.2208 2.5188 26.8828 -0.384238
1070 2 2.2208 5.33318 29.6445 -0.376595
747 1 -1.1104 6.69935 28.2028 3.75766
743 1 -1.1104 6.68783 25.377 3.77212
742 1 -1.1104 6.63023 25.4778 0.914319
746 1 -1.1104 6.566 22.6133 3.77256
744 1 -1.1104 6.74065 22.5934 1.01521
1071 2 2.2208 -0.250336 29.6919 -0.408205
745 1 -1.1104 6.72289 28.2779 0.884927
748 2 2.2208 10.8875 23.9975 5.15667
749 2 2.2208 10.9343 29.6572 5.2938
750 1 -1.1104 12.3599 25.5323 1.08148
751 1 -1.1104 12.189 25.4496 3.83064
752 1 -1.1104 12.2361 22.7338 0.950034
753 1 -1.1104 12.3284 28.3193 0.924419
754 2 2.2208 10.9449 26.8624 2.41428
755 1 -1.1104 12.2925 22.6083 3.79559
756 1 -1.1104 12.3584 28.288 3.88956
757 1 -1.1104 9.49814 25.4209 0.990227
758 2 2.2208 8.14765 24.0235 2.39573
759 2 2.2208 8.115 29.5974 2.38713
760 1 -1.1104 9.43302 25.51 3.71955
761 2 2.2208 8.10913 26.8177 5.1927
762 1 -1.1104 9.53612 22.6847 0.987806
763 1 -1.1104 9.50466 28.1933 1.02654
764 1 -1.1104 9.44103 22.5829 3.80705
765 1 -1.1104 9.56027 28.2996 3.80138
1073 2 2.2208 8.11075 26.838 -0.402752
1072 2 2.2208 10.8789 24.1028 -0.402497
1075 2 2.2208 10.935 29.6358 -0.389322
768 2 2.2208 13.712 26.848 5.23021
766 2 2.2208 13.7016 24.0858 2.43843
1074 2 2.2208 13.6865 26.81 -0.429361
898 1 -1.1104 9.52074 25.4196 6.51517
895 1 -1.1104 12.3762 25.4037 6.5281
899 1 -1.1104 9.54553 22.4708 6.53727
767 2 2.2208 13.6362 29.7802 2.51456
769 2 2.2208 5.29186 35.2576 5.30656
770 1 -1.1104 1.16073 31.0213 1.03599
771 1 -1.1104 1.08706 36.5978 1.06828
773 1 -1.1104 1.11863 31.1295 3.90812
774 1 -1.1104 1.05475 36.6946 3.7971
776 1 -1.1104 1.06619 33.8416 1.05977
777 2 2.2208 5.35053 32.5051 2.44457
778 2 2.2208 5.29162 38.1356 2.44791
779 1 -1.1104 1.07967 33.9231 3.9076
781 1 -1.1104 3.88353 31.0402 0.958413
782 1 -1.1104 3.92801 36.7197 1.11586
783 2 2.2208 2.44783 35.1981 2.47712
784 1 -1.1104 3.8634 31.0466 3.78438
785 1 -1.1104 3.86023 36.634 3.89129
786 2 2.2208 2.56104 32.4038 5.26993
787 2 2.2208 2.4182 38.029 5.26451
788 1 -1.1104 3.96127 33.8501 1.00433
789 1 -1.1104 3.89474 33.8276 3.86912
1077 2 2.2208 2.48384 32.3889 -0.339772
793 1 -1.1104 6.73636 31.1349 0.979562
795 1 -1.1104 6.69231 33.91 0.98945
1080 2 2.2208 -0.35857 35.2393 -0.41687
919 1 -1.1104 1.08022 31.1085 6.65365
927 1 -1.1104 3.95423 33.8747 6.69642
791 2 2.2208 -0.266315 32.5186 2.39525
1076 2 2.2208 2.43532 37.964 -0.242675
780 1 -1.1104 6.63785 33.7996 3.83789
794 1 -1.1104 6.71547 30.987 3.89775
772 1 -1.1104 6.73361 36.6639 1.06571
775 1 -1.1104 6.75469 36.621 3.84819
796 2 2.2208 11.0059 35.2218 5.28866
797 1 -1.1104 12.1794 31.0793 0.987942
798 1 -1.1104 12.2632 36.5416 1.06143
799 1 -1.1104 12.3549 31.1214 3.92608
800 1 -1.1104 12.3698 36.6974 3.86226