LAMMPS (29 Oct 2020)
OMP_NUM_THREADS environment is not set. Defaulting to 1 thread. (../comm.cpp:94)
  using 1 OpenMP thread(s) per MPI task
#---------------------------------------
#
# This script is used to calculate the thermal conuctivity of UO2 using Muller-Plathe method
# By Ziqiang Wang on 03/18/2022 on Jilin university
#
#---------------------------------------

variable     Nevery    equal   50
variable     T         equal   1200

clear
OMP_NUM_THREADS environment is not set. Defaulting to 1 thread. (../comm.cpp:94)
  using 1 OpenMP thread(s) per MPI task
units          metal
boundary       p p p
atom_style     full

read_data vac_0.015_relaxed.dat
Reading data file ...
  orthogonal box = (-0.4437009 -5.2519249 -0.44055416) to (27.783701 333.33192 27.780554)
  2 by 13 by 2 MPI processor grid
  reading atoms ...
  17730 atoms
  reading velocities ...
  17730 velocities
Finding 1-2 1-3 1-4 neighbors ...
  special bond factors lj:    0.0      0.0      0.0     
  special bond factors coul:  0.0      0.0      0.0     
     0 = max # of 1-2 neighbors
     0 = max # of 1-3 neighbors
     0 = max # of 1-4 neighbors
     1 = max # of special neighbors
  special bonds CPU = 0.004 seconds
  read_data CPU = 0.058 seconds

set           type     1    charge     -1.1104
Setting atom values ...
  11820 settings made for charge
set           type     2    charge      2.2208
Setting atom values ...
  5910 settings made for charge

kspace_style    pppm   1.0e-05
pair_style      hybrid/overlay  coul/long  11.0  eam/alloy
pair_coeff      * * coul/long
pair_coeff      * * eam/alloy CeThUNpPuAmCmO.eam.alloy O Th
newton          on
neighbor        0.3 bin
neigh_modify    delay 0 check yes every 1

#The first equilation
velocity        all create $T 10004 mom yes rot yes dist gaussian
velocity        all create 1200 10004 mom yes rot yes dist gaussian
fix             nvt  all  nvt  temp  $T $T  0.1
fix             nvt  all  nvt  temp  1200 $T  0.1
fix             nvt  all  nvt  temp  1200 1200  0.1

run             50000
PPPM initialization ...
  using 12-bit tables for long-range coulomb (../kspace.cpp:328)
  G vector (1/distance) = 0.29850448
  grid = 40 240 40
  stencil order = 5
  estimated absolute RMS force accuracy = 0.00015913128
  estimated relative force accuracy = 1.1051056e-05
  using single precision MKL FFT
  3d grid and FFT values/proc = 15000 7600
Neighbor list info ...
  update every 1 steps, delay 0 steps, check yes
  max neighbors/atom: 2000, page size: 100000
  master list distance cutoff = 11.3
  ghost atom cutoff = 11.3
  binsize = 5.65, bins = 5 60 5
  2 neighbor lists, perpetual/occasional/extra = 2 0 0
  (1) pair coul/long, perpetual
      attributes: half, newton on
      pair build: half/bin/newton
      stencil: half/bin/3d/newton
      bin: standard
  (2) pair eam/alloy, perpetual, copy from (1)
      attributes: half, newton on
      pair build: copy
      stencil: none
      bin: none
Per MPI rank memory allocation (min/avg/max) = 8.143 | 8.169 | 8.188 Mbytes
Step Temp E_pair E_mol TotEng Press 
       0         1200   -230202.27            0   -227452.28   -19.683091 
   50000     1197.006    -230220.1            0   -227476.98   -449.37602 
Loop time of 328.262 on 52 procs for 50000 steps with 17730 atoms

Performance: 13.160 ns/day, 1.824 hours/ns, 152.317 timesteps/s
99.8% CPU use with 52 MPI tasks x 1 OpenMP threads

MPI task timing breakdown:
Section |  min time  |  avg time  |  max time  |%varavg| %total
---------------------------------------------------------------
Pair    | 212.41     | 222.47     | 229.73     |  29.5 | 67.77
Bond    | 0.0034537  | 0.0050201  | 0.0069128  |   1.2 |  0.00
Kspace  | 63.573     | 72.601     | 82.961     |  58.0 | 22.12
Neigh   | 20.339     | 23.083     | 25.076     |  22.9 |  7.03
Comm    | 7.2859     | 7.8538     | 9.3487     |  18.5 |  2.39
Output  | 6.4569e-05 | 6.9371e-05 | 0.00027923 |   0.0 |  0.00
Modify  | 0.89493    | 1.6007     | 2.8255     |  45.5 |  0.49
Other   |            | 0.6478     |            |       |  0.20

Nlocal:        340.962 ave         364 max         320 min
Histogram: 3 3 2 11 10 11 5 1 0 6
Nghost:        3977.29 ave        4118 max        3842 min
Histogram: 4 2 7 6 9 4 12 0 4 4
Neighs:        67940.8 ave       73425 max       59431 min
Histogram: 5 0 0 2 5 10 14 9 1 6

Total # of neighbors = 3532924
Ave neighs/atom = 199.26249
Ave special neighs/atom = 0.0000000
Neighbor list builds = 11016
Dangerous builds = 0
unfix           nvt
reset_timestep  0

# the second run
fix             1 all nve

group           oxygen type 1
11820 atoms in group oxygen
fix             2 oxygen thermal/conductivity ${Nevery} y 20
fix             2 oxygen thermal/conductivity 50 y 20

compute         ke all ke/atom
variable        temp atom c_ke/1.5
compute         layers all chunk/atom bin/1d y lower 0.05 units reduced
fix             3      all ave/chunk  2000 50 100000 layers v_temp file profile_${T}K.mp
fix             3      all ave/chunk  2000 50 100000 layers v_temp file profile_1200K.mp

variable        Tdiff    equal     f_3[11][3]-f_3[1][3]
variable        deltaT   equal     v_Tdiff*1.5/0.0001292

timestep        0.001
thermo_style    custom step f_2 temp v_Tdiff v_deltaT
thermo          100000

run             1000000
PPPM initialization ...
  using 12-bit tables for long-range coulomb (../kspace.cpp:328)
  G vector (1/distance) = 0.29850448
  grid = 40 240 40
  stencil order = 5
  estimated absolute RMS force accuracy = 0.00015913128
  estimated relative force accuracy = 1.1051056e-05
  using single precision MKL FFT
  3d grid and FFT values/proc = 15000 7600
Per MPI rank memory allocation (min/avg/max) = 8.394 | 8.420 | 8.439 Mbytes
Step f_2 Temp v_Tdiff v_deltaT 
       0            0     1197.006            0            0 
  100000    1312.7984    1200.7457  0.049215177    571.38363 
  200000    2568.6007     1191.807  0.056233322    652.86365 
  300000    3820.4022    1198.8114  0.055915155    649.16976 
  400000    5069.1405     1199.552  0.056173974    652.17462 
  500000    6318.1479    1201.0814  0.055495363    644.29601 
  600000    7577.0682    1200.3034   0.05547189    644.02349 
  700000    8836.7908    1199.7735  0.056580891    656.89889 
  800000    10087.931    1205.2677  0.056641862    657.60675 
  900000    11341.068    1207.8854  0.056566647    656.73352 
 1000000    12592.578    1200.8654  0.057949053    672.78313 
Loop time of 6583.19 on 52 procs for 1000000 steps with 17730 atoms

Performance: 13.124 ns/day, 1.829 hours/ns, 151.902 timesteps/s
99.8% CPU use with 52 MPI tasks x 1 OpenMP threads

MPI task timing breakdown:
Section |  min time  |  avg time  |  max time  |%varavg| %total
---------------------------------------------------------------
Pair    | 4237.2     | 4415.6     | 4598       | 113.0 | 67.07
Bond    | 0.069221   | 0.10024    | 0.13355    |   4.8 |  0.00
Kspace  | 1262       | 1474.6     | 1665.9     | 226.5 | 22.40
Neigh   | 427.93     | 496.32     | 541.09     | 116.0 |  7.54
Comm    | 148.15     | 160.48     | 194.35     |  93.6 |  2.44
Output  | 0.0010383  | 0.0010969  | 0.0023706  |   0.5 |  0.00
Modify  | 5.2637     | 5.7758     | 6.3728     |  11.0 |  0.09
Other   |            | 30.34      |            |       |  0.46

Nlocal:        340.962 ave         361 max         310 min
Histogram: 3 2 2 2 4 7 10 13 6 3
Nghost:        3982.65 ave        4122 max        3853 min
Histogram: 4 6 10 4 0 5 7 10 4 2
Neighs:        67936.2 ave       73127 max       55867 min
Histogram: 2 1 2 1 1 3 9 13 17 3

Total # of neighbors = 3532681
Ave neighs/atom = 199.24879
Ave special neighs/atom = 0.0000000
Neighbor list builds = 236117
Dangerous builds = 0

Total wall time: 1:55:11
