ITEM: TIMESTEP
20000
ITEM: NUMBER OF ATOMS
17640
ITEM: BOX BOUNDS pp pp pp
-3.9256682343535082e-01 2.7732566823435342e+01
-4.8289325479410481e+00 3.3290893254793616e+02
-3.8893117203752298e-01 2.7728931172037409e+01
ITEM: ATOMS id type q x y z
1 2 2.2208 5.21305 0.831009 5.13473
2 1 -1.1104 1.12151 -3.60229 1.03418
3 1 -1.1104 1.07643 2.20086 0.985243
6 1 -1.1104 0.974513 -3.60603 4.01551
7 1 -1.1104 1.01766 2.09195 3.98683
10 1 -1.1104 1.26077 -0.787019 1.18396
12 2 2.2208 5.2467 -2.031 2.45081
14 1 -1.1104 1.00217 -0.68216 3.83645
16 1 -1.1104 3.86253 -3.44041 0.921339
17 1 -1.1104 3.85996 2.28746 0.824763
18 2 2.2208 2.56067 0.771656 2.31351
19 1 -1.1104 3.78576 -3.63587 3.79954
20 1 -1.1104 3.96723 2.24149 3.69825
21 2 2.2208 2.3884 -2.04957 5.16528
22 2 2.2208 2.33033 3.40952 5.24383
23 1 -1.1104 3.98033 -0.478143 1.16615
24 1 -1.1104 3.72193 -0.749505 3.89265
334 2 2.2208 -0.286256 6.38252 11.0113
136 2 2.2208 -0.22971 20.2836 2.39425
51 2 2.2208 8.02566 -4.66034 2.31254
289 1 -1.1104 6.70279 16.2048 9.40629
13 2 2.2208 5.29645 3.54326 2.27196
166 1 -1.1104 0.835446 -3.26654 6.57303
137 2 2.2208 -0.134957 17.6301 5.21396
174 1 -1.1104 3.90298 -0.615729 6.8582
172 1 -1.1104 3.98828 -3.49697 6.8009
173 1 -1.1104 3.67208 2.17541 6.77117
167 1 -1.1104 0.76773 2.2265 6.64145
203 2 2.2208 5.16553 -4.75624 10.7983
15 1 -1.1104 6.52545 -0.504979 3.777
8 1 -1.1104 6.57057 -3.26053 3.96017
9 1 -1.1104 6.60567 2.29575 3.79763
11 1 -1.1104 6.68932 -0.463818 1.1147
4 1 -1.1104 6.49917 -3.06571 0.995121
5 1 -1.1104 6.53059 2.22062 0.814
31 2 2.2208 10.7476 0.960573 5.0081
32 1 -1.1104 12.2684 -3.5486 1.18879
33 1 -1.1104 12.3163 2.23297 0.937469
34 1 -1.1104 12.3214 -3.47259 3.72592
35 1 -1.1104 12.1516 2.18151 3.54562
36 1 -1.1104 12.4038 -0.543444 1.11354
37 2 2.2208 10.8416 -1.98433 2.52585
38 2 2.2208 10.7565 3.58432 2.33972
39 1 -1.1104 12.2577 -0.694312 3.9451
40 1 -1.1104 9.51069 -3.30988 0.98114
41 1 -1.1104 9.3815 2.27739 0.891666
42 2 2.2208 7.86274 0.833565 2.38647
43 1 -1.1104 9.50369 -3.57651 3.88068
44 1 -1.1104 9.35962 2.01806 3.67955
45 2 2.2208 8.0779 -2.01434 5.33164
47 1 -1.1104 9.58037 -0.44343 1.03434
48 1 -1.1104 9.31482 -0.663056 3.66686
46 2 2.2208 7.91989 3.65883 5.08371
168 1 -1.1104 6.6959 -3.39221 6.7472
9454 2 2.2208 -0.368363 20.4974 13.4876
135 2 2.2208 -0.206313 14.8631 2.39369
210 1 -1.1104 9.28654 -0.373224 6.46976
208 1 -1.1104 9.53638 -3.41322 6.66114
169 1 -1.1104 6.63305 2.20243 6.49012
313 2 2.2208 -0.171372 14.8264 7.99651
54 2 2.2208 5.20579 6.31074 5.23731
55 2 2.2208 5.34912 12.2607 5.18602
56 1 -1.1104 0.917137 7.71307 0.813629
58 1 -1.1104 0.953291 7.56433 3.73783
60 1 -1.1104 0.935141 5.03797 1.06763
61 1 -1.1104 1.06594 10.5851 1.00062
66 2 2.2208 5.3276 9.19508 2.2793
67 1 -1.1104 1.08228 4.85361 3.85617
68 1 -1.1104 0.952854 10.6967 3.69026
71 1 -1.1104 3.75553 7.79278 0.865025
72 2 2.2208 2.30864 6.43395 2.35307
73 2 2.2208 2.52158 12.1459 2.49857
74 1 -1.1104 3.57317 7.68885 3.78991
75 2 2.2208 2.45695 9.15448 5.33754
76 1 -1.1104 3.82426 5.066 0.889338
77 1 -1.1104 4.02598 10.5813 0.94734
79 1 -1.1104 3.87156 4.93786 3.83873
80 1 -1.1104 3.91038 10.6669 3.75074
231 2 2.2208 8.08282 -4.78457 7.99778
353 2 2.2208 10.9076 3.62091 13.6644
236 1 -1.1104 1.10297 4.91057 6.61395
331 2 2.2208 13.6653 9.21505 10.704
238 1 -1.1104 3.87686 7.62752 6.52731
202 2 2.2208 2.35102 -4.67552 8.03109
200 2 2.2208 -0.335515 -2.00697 7.95995
29 2 2.2208 5.25217 -4.76767 5.18032
63 1 -1.1104 6.64711 4.85327 0.817888
59 1 -1.1104 6.63764 7.77842 3.97743
64 1 -1.1104 6.83223 10.5004 1.07559
69 1 -1.1104 6.5983 5.06692 3.72551
70 1 -1.1104 6.67949 10.7741 3.81318
57 1 -1.1104 6.60404 7.57445 0.898378
84 2 2.2208 10.7403 6.41533 5.18414
85 2 2.2208 10.9818 12.0514 5.16608
86 1 -1.1104 12.4872 7.69062 1.14129
87 1 -1.1104 12.3942 7.75529 3.93916
88 1 -1.1104 12.2309 4.78645 0.885084
89 1 -1.1104 12.3476 10.4391 0.938064
91 2 2.2208 11.0188 9.15652 2.35616
92 1 -1.1104 12.1018 4.93577 3.66568
93 1 -1.1104 12.2935 10.6665 3.83998
94 1 -1.1104 9.68195 8.02587 0.669032
95 2 2.2208 7.92339 6.42197 2.25358
96 2 2.2208 8.0963 12.1873 2.38215
97 1 -1.1104 9.4249 7.66297 3.50992
98 2 2.2208 7.99974 9.19578 5.23842
99 1 -1.1104 9.44653 5.0669 0.738407
100 1 -1.1104 9.66881 10.6413 0.822119
102 1 -1.1104 9.35998 4.86302 3.73387
103 1 -1.1104 9.50157 10.5731 3.5548
65 1 -1.1104 6.63581 10.8054 6.61674
237 1 -1.1104 6.73831 5.06775 6.68735
267 1 -1.1104 9.49544 8.04187 6.33658
90 1 -1.1104 12.2272 10.5654 6.47197
101 1 -1.1104 9.4512 10.5985 6.40993
266 1 -1.1104 12.1481 4.85086 6.39808
311 2 2.2208 -0.374734 20.2394 8.05968
81 2 2.2208 -0.341298 6.24943 5.27118
106 2 2.2208 5.26801 17.4909 5.06676
107 1 -1.1104 1.1492 13.3291 0.939655
109 1 -1.1104 1.04192 19.0733 1.00704
113 1 -1.1104 1.37181 13.5534 3.77603
114 1 -1.1104 1.15035 19.118 3.83856
116 1 -1.1104 1.14604 16.3967 1.05985
119 2 2.2208 5.39188 14.8534 2.29415
120 2 2.2208 5.39173 20.4161 2.46543
121 1 -1.1104 1.19078 16.2942 3.80406
123 1 -1.1104 3.77148 13.6319 0.99971
125 1 -1.1104 3.79407 19.0033 0.872735
127 2 2.2208 2.46345 17.7338 2.40603
128 1 -1.1104 4.02632 13.5188 3.78578
129 1 -1.1104 3.99919 18.8932 3.83337
130 2 2.2208 2.51911 14.782 5.19742
131 2 2.2208 2.67695 20.2905 5.21909
132 1 -1.1104 4.02683 16.396 1.18881
134 1 -1.1104 3.79093 16.173 3.72193
82 2 2.2208 -0.32715 9.18208 2.30466
124 1 -1.1104 3.89642 13.4411 6.7284
108 1 -1.1104 1.16757 13.3419 6.70006
133 1 -1.1104 3.91518 16.2585 6.56534
302 1 -1.1104 1.12638 18.8919 6.61088
318 1 -1.1104 9.51162 19.0478 9.55635
350 2 2.2208 8.10496 20.4341 -0.356966
140 1 -1.1104 6.60941 16.3258 0.776993
139 1 -1.1104 6.74324 18.918 3.82415
138 1 -1.1104 6.72645 19.1356 1.03884
115 1 -1.1104 6.71132 13.6211 3.95679
122 1 -1.1104 6.72342 16.2456 3.68433
110 1 -1.1104 6.55657 13.3719 0.974115
141 2 2.2208 10.9694 17.495 5.19396
142 1 -1.1104 12.3242 13.1841 0.816986
144 1 -1.1104 12.4132 19.0211 0.958029
146 1 -1.1104 12.1443 13.6254 3.74554
147 1 -1.1104 12.3069 19.0598 3.78204
148 1 -1.1104 12.3084 16.3533 1.05109
150 2 2.2208 10.9215 14.885 2.25576
151 2 2.2208 10.9172 20.4611 2.54931
152 1 -1.1104 12.5312 16.3274 3.75404
153 1 -1.1104 9.63164 13.3753 0.847102
155 1 -1.1104 9.51237 18.9785 1.28843
157 2 2.2208 8.13182 17.721 2.43346
158 1 -1.1104 9.37005 13.4055 3.77675
159 1 -1.1104 9.56627 19.1353 4.03744
160 2 2.2208 8.07874 14.8497 5.25668
161 2 2.2208 8.13069 20.6291 5.37809
162 1 -1.1104 9.52791 16.299 1.00413
164 1 -1.1104 9.67312 16.2747 3.73033
112 1 -1.1104 6.83852 19.0356 6.6518
143 1 -1.1104 12.2736 13.4316 6.52022
149 1 -1.1104 12.3933 16.0927 6.61403
145 1 -1.1104 12.359 18.8364 6.51171
328 1 -1.1104 12.4659 13.5413 9.27996
156 1 -1.1104 9.51755 18.9232 6.831
377 2 2.2208 13.5569 -1.91753 -0.394038
290 1 -1.1104 6.66022 13.3332 9.61536
170 1 -1.1104 1.01642 -0.594113 6.6034
25 2 2.2208 -0.287787 -2.13176 2.30664
199 2 2.2208 -0.318798 3.55808 8.02614
338 2 2.2208 -0.365283 9.15283 13.6864
201 2 2.2208 -0.324086 0.782217 10.7686
175 2 2.2208 5.16503 0.716931 10.825
176 1 -1.1104 1.04852 -3.57555 12.2918
177 1 -1.1104 0.917682 2.26591 12.2133
180 1 -1.1104 0.985255 -3.36768 9.37133
181 1 -1.1104 0.96967 2.02006 9.25169
184 1 -1.1104 1.12359 -0.617768 12.0241
186 2 2.2208 5.34757 -2.06592 8.05103
187 2 2.2208 5.17975 3.43324 8.0713
188 1 -1.1104 1.11224 -0.681921 9.2915
190 1 -1.1104 3.80258 -3.44471 12.2323
191 1 -1.1104 4.07723 2.20662 12.2802
192 2 2.2208 2.48648 0.809578 8.13507
193 1 -1.1104 3.76119 -3.32577 9.44325
194 1 -1.1104 3.71111 2.12014 9.5767
195 2 2.2208 2.42121 -2.11704 10.9345
197 1 -1.1104 3.8496 -0.630397 12.3994
198 1 -1.1104 4.02127 -0.693768 9.59975
196 2 2.2208 2.29421 3.41171 10.8883
363 2 2.2208 10.852 20.5894 13.6708
352 2 2.2208 10.8198 -1.99965 13.645
297 1 -1.1104 6.6366 13.4212 12.3647
9130 2 2.2208 13.6985 3.62236 5.08904
206 1 -1.1104 12.541 2.15774 6.46192
312 2 2.2208 -0.390466 17.5713 10.8109
360 2 2.2208 2.39509 17.6151 13.5967
171 1 -1.1104 6.50192 -0.611656 6.55065
327 1 -1.1104 12.3138 19.0467 9.38718
205 1 -1.1104 12.2011 -3.35576 6.40959
209 1 -1.1104 9.43656 2.22935 6.47875
207 1 -1.1104 12.131 -0.535498 6.51288
189 1 -1.1104 6.52768 -0.565177 9.45335
178 1 -1.1104 6.57537 -3.33535 12.2499
182 1 -1.1104 6.58139 -3.44317 9.32028
185 1 -1.1104 6.73908 -0.508752 12.0841
183 1 -1.1104 6.57479 2.24258 9.24042
179 1 -1.1104 6.62285 2.22039 12.2271
211 2 2.2208 10.8829 0.641331 10.8395
212 1 -1.1104 12.3617 -3.31717 12.1303
213 1 -1.1104 12.313 2.10543 12.0368
214 1 -1.1104 12.2996 -3.4546 9.44331
215 1 -1.1104 12.0638 2.02897 9.13581
216 1 -1.1104 12.2434 -0.620441 12.1964
217 2 2.2208 10.8194 -1.91912 7.96938
219 1 -1.1104 12.2255 -0.839262 9.44652
220 1 -1.1104 9.44074 -3.49064 12.199
221 1 -1.1104 9.70927 1.95268 12.4213
222 2 2.2208 7.90568 0.676368 8.01108
223 1 -1.1104 9.50884 -3.4953 9.42022
224 1 -1.1104 9.37492 2.02115 9.49101
225 2 2.2208 8.13931 -2.11232 10.7837
227 1 -1.1104 9.47696 -0.688637 12.1668
228 1 -1.1104 9.37125 -0.826272 9.45651
226 2 2.2208 8.13567 3.69715 10.8822
218 2 2.2208 10.7978 3.58436 7.95328
320 2 2.2208 8.07513 17.6033 7.87361
316 2 2.2208 8.03552 20.4877 10.7975
342 2 2.2208 -0.405328 3.59478 13.7147
62 1 -1.1104 1.14162 10.4219 6.67067
234 1 -1.1104 1.16678 7.70369 6.60258
78 1 -1.1104 3.7881 10.5369 6.68796
239 1 -1.1104 3.9913 4.84414 6.65712
333 2 2.2208 -0.274828 8.96733 7.90576
9424 2 2.2208 13.6011 11.962 2.38207
240 2 2.2208 5.17329 6.33356 10.8378
241 2 2.2208 5.33661 11.8886 10.968
242 1 -1.1104 1.1048 7.76839 12.2948
244 1 -1.1104 1.23571 7.63782 9.41432
246 1 -1.1104 1.04626 4.96441 12.1793
247 1 -1.1104 0.874591 10.7747 12.4628
250 2 2.2208 5.20233 9.23193 7.98192
251 1 -1.1104 0.889415 4.79734 9.43125
252 1 -1.1104 0.974564 10.3927 9.50809
255 1 -1.1104 3.80926 7.95108 12.0792
256 2 2.2208 2.60477 6.24463 7.98969
257 2 2.2208 2.54927 11.8896 7.96097
258 1 -1.1104 3.9751 7.71198 9.2021
259 2 2.2208 2.24924 9.3434 10.9476
260 1 -1.1104 3.68564 4.82333 12.2598
261 1 -1.1104 3.94415 10.5519 12.393
262 1 -1.1104 3.68763 4.78195 9.4749
263 1 -1.1104 3.74085 10.5555 9.37489
229 2 2.2208 13.6054 0.65324 7.8958
243 1 -1.1104 6.71705 7.86105 12.1181
321 1 -1.1104 9.40416 19.1004 12.2023
9342 2 2.2208 13.4861 11.9286 7.90032
265 1 -1.1104 12.2552 7.75206 6.677
269 1 -1.1104 9.36978 4.93199 6.36509
235 1 -1.1104 6.73052 7.83846 6.62926
359 2 2.2208 7.97519 11.928 13.6276
326 1 -1.1104 12.3576 16.2296 12.1913
249 1 -1.1104 6.7267 10.601 12.0658
248 1 -1.1104 6.67372 5.11815 12.3858
253 1 -1.1104 6.52344 4.91716 9.58839
254 1 -1.1104 6.65049 10.5223 9.4041
245 1 -1.1104 6.62085 7.78966 9.38258
264 1 -1.1104 9.42497 10.6512 9.31813
268 1 -1.1104 9.28987 4.94139 9.25724
270 1 -1.1104 9.61361 10.347 12.0883
271 1 -1.1104 9.47 4.8152 12.2589
272 2 2.2208 8.12718 9.03713 10.7827
273 1 -1.1104 9.50795 7.59866 9.35461
274 2 2.2208 8.047 11.9687 8.11054
275 2 2.2208 7.981 6.40763 8.08548
276 2 2.2208 10.9203 6.44159 10.7208
277 2 2.2208 10.8148 11.9116 10.8476
278 1 -1.1104 12.1665 7.81655 12.3968
279 1 -1.1104 12.2886 7.82595 9.41315
280 1 -1.1104 12.2089 4.86052 12.0768
281 1 -1.1104 12.3477 10.6382 12.1941
282 2 2.2208 10.8153 9.0979 7.9865
283 1 -1.1104 12.2596 4.90599 9.23879
284 1 -1.1104 12.1487 10.4811 9.23199
285 1 -1.1104 9.50164 7.4842 12.1886
117 1 -1.1104 1.18105 16.1699 6.48273
126 1 -1.1104 4.05213 18.9679 6.53785
365 2 2.2208 7.97784 17.6864 13.6599
165 1 -1.1104 12.2881 13.4448 12.2316
324 2 2.2208 10.9978 20.4681 8.12665
293 2 2.2208 5.5173 20.4195 7.99969
295 2 2.2208 5.35939 14.8468 8.19671
292 1 -1.1104 0.992332 16.3032 9.29422
310 2 2.2208 2.34907 14.7195 10.9573
309 2 2.2208 2.44637 20.4678 11.0275
308 1 -1.1104 4.03712 16.0965 12.2819
307 1 -1.1104 0.923983 16.226 12.3471
305 1 -1.1104 3.84577 13.4048 9.53394
304 1 -1.1104 3.63386 16.1744 9.51041
291 1 -1.1104 0.960105 18.8592 9.46488
303 2 2.2208 2.55152 17.48 8.06956
301 1 -1.1104 3.82543 18.8897 9.56283
287 1 -1.1104 3.89994 13.4166 12.2903
286 1 -1.1104 3.99902 18.9124 12.1889
300 2 2.2208 5.21735 17.4783 10.9169
299 1 -1.1104 0.825302 13.5349 12.1909
298 1 -1.1104 1.16913 19.0073 12.0974
294 1 -1.1104 1.02805 13.3972 9.39597
319 1 -1.1104 9.57198 13.3103 9.2627
323 1 -1.1104 12.3888 16.1824 9.51604
154 1 -1.1104 9.66152 13.2805 6.59839
118 1 -1.1104 6.6061 16.3205 6.56037
163 1 -1.1104 9.47977 16.0217 6.55509
111 1 -1.1104 6.63911 13.6155 6.65232
296 1 -1.1104 6.63689 19.0883 12.0544
325 2 2.2208 10.9042 14.6891 7.90756
306 1 -1.1104 6.64784 16.1304 12.2699
329 1 -1.1104 12.1712 19.0144 12.2206
105 2 2.2208 10.9159 17.5295 10.9325
322 1 -1.1104 9.57958 13.3671 12.2413
314 1 -1.1104 9.49829 16.1127 9.38101
288 1 -1.1104 6.73887 19.0404 9.3559
317 2 2.2208 8.28484 14.9293 10.8047
315 1 -1.1104 9.50367 16.2964 12.2695
332 2 2.2208 -0.374785 11.9787 10.8211
9430 2 2.2208 13.6641 17.61 13.6044
349 2 2.2208 10.8529 17.7275 -0.234633
335 2 2.2208 -0.281298 -2.21445 13.5339
50 2 2.2208 13.6236 -2.1616 5.12214
330 2 2.2208 13.6326 3.5323 10.7838
339 2 2.2208 2.40927 0.794782 13.6448
351 2 2.2208 8.09063 0.754176 13.5839
361 2 2.2208 5.26848 20.4861 13.5543
337 2 2.2208 5.28977 -2.02793 13.6141
343 2 2.2208 8.05561 -4.79289 13.5374
374 2 2.2208 2.56117 14.9786 -0.354652
385 2 2.2208 8.21203 9.26881 -0.351738
388 2 2.2208 5.03738 0.789599 16.6197
389 1 -1.1104 1.04463 -3.54933 17.5914
390 1 -1.1104 0.870532 2.3588 17.8222
393 1 -1.1104 0.981453 -3.42416 14.8816
395 1 -1.1104 1.14717 2.15912 14.8984
401 1 -1.1104 1.10887 -0.673279 17.8654
403 2 2.2208 5.35157 -2.17026 19.1375
404 2 2.2208 5.31835 3.66177 19.1133
405 1 -1.1104 0.794735 -0.652623 14.8966
409 1 -1.1104 3.71859 -3.6135 17.7855
410 1 -1.1104 3.9091 2.04376 17.9648
411 2 2.2208 2.40084 0.747602 19.3212
412 1 -1.1104 4.08234 -3.54607 15.0289
414 1 -1.1104 3.78429 2.302 15.0535
416 2 2.2208 2.37075 -2.24673 16.3756
418 1 -1.1104 3.66192 -0.863593 17.937
419 1 -1.1104 3.40191 -0.636312 15.2009
394 1 -1.1104 1.0936 -3.60828 20.8599
371 2 2.2208 8.05954 -1.80086 27.7091
430 2 2.2208 -0.368806 3.59544 19.2867
413 1 -1.1104 3.8944 -3.39905 20.4177
425 2 2.2208 -0.349455 -2.16583 19.1789
415 1 -1.1104 3.79335 2.22794 20.5461
648 2 2.2208 13.6562 -4.84898 24.9442
417 2 2.2208 2.39553 3.66329 16.3658
406 1 -1.1104 0.987756 -0.737128 20.7992
354 2 2.2208 2.4543 6.29074 13.6932
420 1 -1.1104 3.67111 -0.332338 20.8706
428 2 2.2208 -0.330142 6.57011 16.3868
618 2 2.2208 -0.399676 -4.70343 27.6326
497 1 -1.1104 12.415 19.1512 26.2543
407 1 -1.1104 6.43802 -0.548786 15.21
399 1 -1.1104 6.5935 2.19831 15.1905
397 1 -1.1104 6.92003 -3.29618 14.8913
391 1 -1.1104 6.68064 -3.41375 17.7682
392 1 -1.1104 6.72003 2.30049 17.8212
402 1 -1.1104 6.67611 -0.577027 17.922
431 2 2.2208 11.0206 0.808855 16.2868
432 1 -1.1104 12.2137 -3.48126 17.8503
433 1 -1.1104 12.2218 2.20439 17.5806
434 1 -1.1104 12.2406 -3.51475 15.0541
436 1 -1.1104 12.4768 2.38168 14.7619
438 1 -1.1104 12.2068 -0.333937 17.9396
439 2 2.2208 10.8517 -2.12837 19.2194
440 2 2.2208 10.9091 3.57342 19.1831
441 1 -1.1104 12.4217 -0.726507 14.9835
443 1 -1.1104 9.56083 -3.36769 17.7975
444 1 -1.1104 9.44052 1.99852 17.6801
445 2 2.2208 8.18127 0.658204 19.1165
446 1 -1.1104 9.50485 -3.49335 15.1531
448 1 -1.1104 9.54698 2.10807 15.0859
450 2 2.2208 8.06814 -1.9807 16.3872
452 1 -1.1104 9.59043 -0.692152 17.5147
453 1 -1.1104 9.43458 -0.510257 14.9223
451 2 2.2208 8.0091 3.66791 16.5485
457 2 2.2208 8.2477 -4.73808 19.2684
442 1 -1.1104 12.1057 -0.845797 20.8061
435 1 -1.1104 12.2767 -3.47947 20.7756
408 1 -1.1104 6.60214 -0.633651 20.6797
447 1 -1.1104 9.41808 -3.45756 20.7186
398 1 -1.1104 6.60628 -3.53327 20.7371
437 1 -1.1104 12.2555 2.14516 20.6493
449 1 -1.1104 9.60267 1.88828 20.4919
375 2 2.2208 5.26288 17.7247 27.704
616 1 -1.1104 9.50899 16.4104 23.5196
364 2 2.2208 10.7826 14.7614 13.7296
464 2 2.2208 5.38378 6.61459 16.4234
465 2 2.2208 5.27638 12.2049 16.5286
466 1 -1.1104 1.14942 8.01271 17.792
468 1 -1.1104 1.24416 7.72238 15.0788
472 1 -1.1104 0.870719 5.09852 17.7221
473 1 -1.1104 1.06496 10.7029 17.8955
476 2 2.2208 5.20897 9.06083 19.2316
477 1 -1.1104 1.03732 4.92659 15.077
479 1 -1.1104 0.918795 10.4487 15.1008
485 1 -1.1104 3.87028 7.88593 17.7243
486 2 2.2208 2.46481 6.3125 19.2131
487 2 2.2208 2.38511 12.134 19.0488
488 1 -1.1104 3.93374 7.77409 14.9565
490 2 2.2208 2.50496 9.21667 16.4501
491 1 -1.1104 3.76674 4.92169 17.667
492 1 -1.1104 3.87497 10.682 17.8026
493 1 -1.1104 3.93329 5.14776 14.9785
495 1 -1.1104 3.78438 10.6588 15.2145
355 2 2.2208 5.29101 9.21264 13.6651
427 2 2.2208 13.641 3.48177 22.0184
496 1 -1.1104 3.88457 10.7072 20.6886
481 1 -1.1104 6.54489 5.01771 15.1672
470 1 -1.1104 6.74426 7.87322 15.0592
474 1 -1.1104 6.60353 4.93655 17.9124
475 1 -1.1104 6.58302 10.5801 17.9741
483 1 -1.1104 6.61098 10.6439 15.035
467 1 -1.1104 6.74172 7.67336 17.8265
500 2 2.2208 10.7023 6.34035 16.5903
501 2 2.2208 11.0088 12.1182 16.6152
502 1 -1.1104 12.1779 7.64413 17.8533
503 1 -1.1104 12.4424 7.89021 15.0813
505 1 -1.1104 12.2827 4.83529 17.8326
506 1 -1.1104 12.2884 10.6137 17.7898
507 2 2.2208 10.8367 9.24516 19.3248
508 1 -1.1104 12.0741 5.11096 14.8858
510 1 -1.1104 12.1311 10.6521 15.1241
512 1 -1.1104 9.2892 7.88022 18.0635
513 2 2.2208 8.12317 6.5809 19.4168
514 2 2.2208 8.02833 11.9969 19.4897
515 1 -1.1104 9.53473 7.85677 15.1812
517 2 2.2208 8.06053 9.29226 16.4163
518 1 -1.1104 9.55695 4.83404 17.9799
519 1 -1.1104 9.33339 10.7975 17.8804
520 1 -1.1104 9.46006 5.01675 15.0308
522 1 -1.1104 9.34986 10.7848 14.979
511 1 -1.1104 12.2892 10.552 20.4865
482 1 -1.1104 6.74311 5.13513 20.7937
471 1 -1.1104 6.77565 7.9603 20.7393
484 1 -1.1104 6.69192 10.5604 20.7493
509 1 -1.1104 12.4102 4.8578 20.608
504 1 -1.1104 12.3407 7.74785 20.6437
516 1 -1.1104 9.69863 7.61033 20.6999
650 2 2.2208 10.9681 -4.81441 22.1947
9643 2 2.2208 13.5509 20.5785 16.4236
527 2 2.2208 5.23833 17.6861 16.4615
528 1 -1.1104 1.06352 13.6449 17.7814
529 1 -1.1104 1.26746 18.9729 17.785
532 1 -1.1104 1.06852 13.3142 15.221
534 1 -1.1104 1.02818 18.9698 14.9847
540 1 -1.1104 0.790216 16.4181 17.9869
542 2 2.2208 5.23645 14.9367 19.2742
543 2 2.2208 5.41332 20.5904 19.2157
544 1 -1.1104 0.870984 16.2493 15.0206
548 1 -1.1104 3.88588 13.5921 17.7295
549 1 -1.1104 3.98105 19.1665 17.6963
550 2 2.2208 2.30828 17.72 19.3044
551 1 -1.1104 3.78657 13.5282 14.9303
553 1 -1.1104 3.78672 19.0591 14.8662
555 2 2.2208 2.44139 14.9629 16.3418
556 2 2.2208 2.49347 20.4702 16.3679
557 1 -1.1104 3.79255 16.2039 17.874
558 1 -1.1104 3.77669 16.1773 14.837
348 2 2.2208 7.96819 14.827 27.6504
386 2 2.2208 10.8257 12.0332 27.4876
590 2 2.2208 13.6503 14.8977 22.1082
554 1 -1.1104 3.74359 19.0026 20.3558
547 1 -1.1104 6.71815 16.391 20.593
559 1 -1.1104 3.85814 16.3304 20.5479
381 2 2.2208 5.12031 12.0416 27.6076
383 2 2.2208 -0.318614 6.38379 27.7086
9762 2 2.2208 13.5908 9.29991 22.0706
9570 2 2.2208 13.6312 9.30354 16.4789
530 1 -1.1104 6.70637 13.5529 18.1425
538 1 -1.1104 6.51207 19.0394 14.9035
546 1 -1.1104 6.55558 16.1721 15.1649
536 1 -1.1104 6.55381 13.3826 15.0649
541 1 -1.1104 6.76317 16.1908 17.7933
531 1 -1.1104 6.5679 19.0952 17.7626
563 2 2.2208 10.8808 17.6486 16.3962
564 1 -1.1104 12.2471 13.4848 18.0601
565 1 -1.1104 12.2741 19.0015 17.7037
566 1 -1.1104 12.3131 13.4834 15.1683
568 1 -1.1104 12.1475 18.9021 14.904
570 1 -1.1104 12.3972 16.2757 17.9353
571 2 2.2208 10.8752 15.0574 19.3018
572 2 2.2208 10.9685 20.5863 19.2645
573 1 -1.1104 12.3472 16.1524 15.023
575 1 -1.1104 9.45377 13.5774 17.9824
576 1 -1.1104 9.61894 19.209 17.7889
577 2 2.2208 8.11629 17.8969 19.3386
578 1 -1.1104 9.54316 13.6138 15.2047
580 1 -1.1104 9.43427 19.1925 15.0895
582 2 2.2208 8.05762 14.8026 16.5671
583 2 2.2208 8.19456 20.6253 16.5554
584 1 -1.1104 9.54605 16.4153 17.8285
585 1 -1.1104 9.32006 16.4916 15.0269
567 1 -1.1104 12.3135 13.4752 20.6059
586 1 -1.1104 9.54093 16.5004 20.7035
581 1 -1.1104 9.58487 19.2634 20.7067
588 1 -1.1104 9.61462 19.1409 26.5366
429 2 2.2208 -0.163973 9.22558 19.2406
396 1 -1.1104 1.07087 2.30586 20.5461
463 1 -1.1104 12.2497 13.6729 26.0499
368 2 2.2208 2.36343 3.60493 27.7211
379 2 2.2208 5.24151 6.30279 27.6403
591 2 2.2208 5.18274 0.791702 22.0087
592 1 -1.1104 1.06311 -3.40286 23.3811
593 1 -1.1104 1.06408 2.17429 23.355
596 1 -1.1104 1.05129 -3.34683 26.2437
597 1 -1.1104 1.12511 2.22482 26.3925
600 1 -1.1104 1.17286 -0.512268 23.6323
602 2 2.2208 5.2695 -1.96313 24.8577
604 1 -1.1104 0.987723 -0.527627 26.3393
606 1 -1.1104 3.91047 -3.45716 23.3688
607 1 -1.1104 3.85348 2.3349 23.1465
608 2 2.2208 2.58605 0.933398 24.7807
609 1 -1.1104 3.7768 -3.325 26.1324
610 1 -1.1104 3.82531 2.35912 26.1302
611 2 2.2208 2.25028 -1.92048 22.095
613 1 -1.1104 3.89016 -0.597873 23.391
614 1 -1.1104 3.72406 -0.47562 26.2945
589 2 2.2208 8.14902 14.9851 22.0135
603 2 2.2208 5.27105 3.63595 24.9021
612 2 2.2208 2.36296 3.61083 21.9152
366 2 2.2208 5.04061 0.916867 27.684
645 2 2.2208 -0.371357 20.5692 25.0475
619 2 2.2208 -0.263853 -4.83303 22.0402
462 1 -1.1104 12.4152 18.9708 23.2803
9496 2 2.2208 13.5903 3.50794 16.3432
380 2 2.2208 2.34124 9.18484 27.612
712 1 -1.1104 6.49277 13.4039 26.1653
617 1 -1.1104 9.39863 16.3638 26.3942
400 1 -1.1104 6.74886 2.06383 20.6301
384 2 2.2208 10.9034 6.36898 27.5603
498 1 -1.1104 12.3953 16.2729 23.5093
454 1 -1.1104 9.27884 -0.867161 20.5688
598 1 -1.1104 6.67383 -3.56265 26.3189
594 1 -1.1104 6.76693 -3.42236 23.675
595 1 -1.1104 6.79531 2.21037 23.3546
601 1 -1.1104 6.58518 -0.501949 23.6299
605 1 -1.1104 6.48164 -0.647125 26.4358
599 1 -1.1104 6.61997 2.20746 26.1385
627 2 2.2208 10.9385 0.608893 21.9234
628 1 -1.1104 12.2208 -3.47424 23.4331
629 1 -1.1104 12.2998 1.99935 23.4381
630 1 -1.1104 12.361 -3.57401 26.3698
631 1 -1.1104 12.4363 2.0951 26.4099
632 1 -1.1104 12.3531 -0.680532 23.6141
633 2 2.2208 10.7184 -2.0301 24.8598
635 1 -1.1104 12.206 -0.56006 26.3702
636 1 -1.1104 9.45135 -3.4592 23.6198
637 1 -1.1104 9.63911 2.02151 23.3043
638 2 2.2208 8.06441 0.730115 24.8232
639 1 -1.1104 9.5319 -3.04105 26.3572
640 1 -1.1104 9.35779 2.13755 25.9499
641 2 2.2208 8.05444 -2.09419 22.0844
643 1 -1.1104 9.39893 -0.726676 23.4292
644 1 -1.1104 9.20383 -0.515796 26.323
642 2 2.2208 8.13264 3.47199 22.0099
634 2 2.2208 10.9391 3.42737 24.904
681 1 -1.1104 6.63752 16.3529 23.2659
525 1 -1.1104 12.4171 16.3751 26.3751
469 1 -1.1104 1.14626 8.04076 20.6664
480 1 -1.1104 1.15104 10.7099 20.732
489 1 -1.1104 4.01588 7.72266 20.4747
478 1 -1.1104 1.05149 5.03678 20.5935
494 1 -1.1104 3.80879 4.91322 20.2724
721 1 -1.1104 6.7671 13.5713 23.4148
367 2 2.2208 2.4979 -1.98562 27.6993
426 2 2.2208 -0.317873 6.37999 22.1093
656 2 2.2208 5.30499 6.48853 22.0733
657 2 2.2208 5.1452 12.0438 21.951
658 1 -1.1104 1.02818 7.85846 23.491
660 1 -1.1104 1.07468 7.81114 26.1911
662 1 -1.1104 1.02567 4.98466 23.3904
663 1 -1.1104 0.93226 10.6846 23.4716
666 2 2.2208 5.37089 9.17804 24.9261
667 1 -1.1104 1.02908 5.06423 26.2735
668 1 -1.1104 0.895121 10.652 26.3806
671 1 -1.1104 3.79619 7.81126 23.2708
672 2 2.2208 2.31792 6.51131 24.8994
673 2 2.2208 2.4296 11.9685 24.8984
674 1 -1.1104 3.79025 7.80233 26.128
675 2 2.2208 2.43498 9.32179 22.0417
676 1 -1.1104 3.81512 4.98705 23.4104
677 1 -1.1104 3.83168 10.7499 23.5412
678 1 -1.1104 3.86375 5.02224 26.2167
679 1 -1.1104 3.92016 10.5333 26.2209
669 1 -1.1104 6.89035 4.94877 26.2055
526 1 -1.1104 9.39797 13.5268 23.4434
521 1 -1.1104 9.58169 4.74345 20.8088
523 1 -1.1104 9.5286 10.6678 20.7721
661 1 -1.1104 6.56164 7.88533 26.2691
664 1 -1.1104 6.53828 5.03522 23.6471
665 1 -1.1104 6.68897 10.633 23.3662
670 1 -1.1104 6.68296 10.6717 26.2837
659 1 -1.1104 6.7444 7.68493 23.5192
687 1 -1.1104 9.29733 10.6455 26.2462
688 1 -1.1104 9.67304 4.78316 26.2631
689 1 -1.1104 9.48644 10.783 23.4589
690 1 -1.1104 9.37446 5.03202 23.5893
691 2 2.2208 8.0437 9.23311 22.2528
692 1 -1.1104 9.31665 7.71156 26.1636
693 2 2.2208 8.11997 12.0745 24.8065
694 2 2.2208 8.08104 6.39533 24.9392
695 2 2.2208 10.9469 6.34 21.9604
696 2 2.2208 10.8236 12.0759 21.9727
697 1 -1.1104 12.2299 7.84046 23.427
698 1 -1.1104 12.2949 7.77803 26.393
699 1 -1.1104 12.183 5.0531 23.4619
700 1 -1.1104 12.2625 10.6937 23.4486
701 2 2.2208 10.9296 9.05462 24.8365
702 1 -1.1104 12.4818 4.97623 26.2222
703 1 -1.1104 12.3056 10.6586 26.1388
704 1 -1.1104 9.53561 7.8923 23.4039
461 1 -1.1104 12.4399 13.4507 23.4244
615 2 2.2208 8.12137 20.5738 22.1182
460 2 2.2208 10.9493 17.7116 22.0733
535 1 -1.1104 0.888117 19.122 20.7013
545 1 -1.1104 0.934514 16.1577 20.6597
533 1 -1.1104 0.888472 13.3821 20.5468
552 1 -1.1104 3.59909 13.5224 20.5549
718 1 -1.1104 6.80246 19.1517 23.4765
623 2 2.2208 -0.381559 17.613 22.1855
524 2 2.2208 10.9973 20.5229 24.9013
647 2 2.2208 2.41358 14.8704 21.8251
652 2 2.2208 2.48259 20.5267 22.0606
655 1 -1.1104 3.75743 16.1646 23.4246
680 1 -1.1104 0.996762 16.2033 23.509
682 1 -1.1104 3.77712 13.597 26.3322
683 1 -1.1104 3.86385 16.3067 26.4226
686 2 2.2208 2.39233 17.749 24.9656
705 1 -1.1104 3.98161 18.921 25.9974
706 2 2.2208 5.28095 17.7664 22.0189
707 1 -1.1104 0.965522 13.4794 23.2975
709 1 -1.1104 1.05934 19.1263 23.5095
711 1 -1.1104 3.83608 19.044 23.3478
713 1 -1.1104 3.7765 13.4225 23.3888
715 1 -1.1104 0.932865 19.1531 26.2191
716 1 -1.1104 1.24351 16.4109 26.2729
717 1 -1.1104 0.932766 13.4915 26.2433
719 2 2.2208 5.26388 20.4779 24.7126
720 2 2.2208 5.25411 14.872 24.7287
561 2 2.2208 8.02509 17.7348 24.9556
537 1 -1.1104 6.57405 13.5843 20.8534
562 1 -1.1104 6.68642 18.9159 26.3461
560 1 -1.1104 9.59666 19.2147 23.6347
574 1 -1.1104 12.5158 16.3155 20.7412
579 1 -1.1104 9.45959 13.557 20.4884
539 1 -1.1104 6.6508 19.0698 20.5685
569 1 -1.1104 12.1837 19.1545 20.5309
499 2 2.2208 10.9274 15.1175 24.9565
714 1 -1.1104 6.59278 16.1707 26.2047
587 1 -1.1104 9.38976 13.6198 26.0586
625 2 2.2208 -0.31634 0.831002 22.1541
626 2 2.2208 -0.2938 3.809 24.9168
370 2 2.2208 10.8069 0.81811 27.6862
362 2 2.2208 5.26434 14.9136 13.7432
358 2 2.2208 10.9749 9.20894 13.7921
376 2 2.2208 2.48057 20.446 27.6093
340 2 2.2208 5.28132 3.50302 13.7386
373 2 2.2208 8.0754 3.48884 27.4656
356 2 2.2208 2.40662 12.001 13.7578
357 2 2.2208 8.09744 6.27692 13.6893
369 2 2.2208 -0.301906 0.816246 27.5954
722 2 2.2208 5.16777 23.3769 5.27243
723 2 2.2208 5.21428 28.9017 5.16257
724 1 -1.1104 1.25055 24.7532 0.959053
725 1 -1.1104 1.13213 24.7333 3.99441
726 1 -1.1104 1.25669 21.8433 0.994295
727 1 -1.1104 1.20284 27.6549 0.8811
728 2 2.2208 5.18995 26.094 2.43748
729 1 -1.1104 1.19507 21.8203 3.75148
730 1 -1.1104 1.19319 27.5266 3.72579
731 1 -1.1104 3.92065 24.7747 0.973716
732 2 2.2208 2.67752 23.3177 2.3513
733 2 2.2208 2.46713 28.9256 2.35218
734 1 -1.1104 3.87766 24.767 3.82965
735 2 2.2208 2.58075 26.1073 5.26465
736 1 -1.1104 3.93985 21.8694 1.00293
737 1 -1.1104 3.90225 27.5749 0.940881
738 1 -1.1104 3.84552 21.6818 3.76622
739 1 -1.1104 3.9214 27.5022 3.8568
742 2 2.2208 -0.206073 26.1552 2.38308
1063 2 2.2208 -0.302218 28.9447 -0.338671
871 1 -1.1104 3.90401 27.5216 6.73035
870 1 -1.1104 4.11 21.8226 6.61102
748 1 -1.1104 6.84392 27.4591 3.76662
869 1 -1.1104 3.97524 24.7091 6.80872
10103 2 2.2208 13.3583 42.9902 11.0223
743 1 -1.1104 6.58099 24.3955 1.05427
747 1 -1.1104 6.62261 21.9539 3.93959
745 1 -1.1104 6.64589 21.6574 1.05541
746 1 -1.1104 6.72382 27.1785 0.945475
744 1 -1.1104 6.55106 24.8712 3.79416
749 2 2.2208 11.0247 23.2298 5.40644
750 2 2.2208 10.9951 28.8242 5.33876
751 1 -1.1104 12.3852 24.5898 1.11734
752 1 -1.1104 12.3568 24.5575 3.95227
753 1 -1.1104 12.1497 21.8172 1.07709
754 1 -1.1104 12.3687 27.4468 1.19415
755 2 2.2208 10.8558 26.0198 2.49734
756 1 -1.1104 12.362 21.8564 3.8157
757 1 -1.1104 12.4797 27.2149 3.78826
758 1 -1.1104 9.59037 24.6521 1.07787
759 2 2.2208 7.99519 23.0942 2.46151
760 2 2.2208 8.29823 28.8233 2.47024
761 1 -1.1104 9.56903 24.8289 3.90534
762 2 2.2208 8.12861 26.0483 5.21284
763 1 -1.1104 9.36737 21.7604 1.06146
764 1 -1.1104 9.49484 27.4591 1.16593
765 1 -1.1104 9.51328 21.8931 4.02039
766 1 -1.1104 9.74413 27.5423 3.88819
901 1 -1.1104 9.58632 27.3698 6.58072
898 1 -1.1104 12.4083 27.5863 6.68566
868 1 -1.1104 6.74959 27.3426 6.41156
867 1 -1.1104 6.76668 21.7968 6.67868
864 1 -1.1104 6.91618 24.6209 6.73316
899 1 -1.1104 9.63525 24.7109 6.80171
1440 1 -1.1104 9.51066 47.0744 3.79327
1425 1 -1.1104 12.307 47.174 1.09793
770 2 2.2208 5.28305 34.3959 5.29093
771 1 -1.1104 1.20301 30.4536 1.06804
772 1 -1.1104 1.25044 35.915 1.04886
774 1 -1.1104 1.1461 30.336 3.96203
775 1 -1.1104 1.38554 35.7246 3.82845
777 1 -1.1104 1.18407 33.0623 1.06878
778 2 2.2208 5.27892 31.6935 2.40551
779 2 2.2208 5.29619 37.2423 2.61945
780 1 -1.1104 1.02815 32.9723 3.92678
782 1 -1.1104 3.94079 30.2572 1.09457
783 1 -1.1104 3.96263 35.8893 1.2026
784 2 2.2208 2.592 34.4421 2.42425
785 1 -1.1104 3.83198 30.3647 3.73171
786 1 -1.1104 4.14399 35.8382 4.00488
787 2 2.2208 2.5516 31.7786 5.10712
788 2 2.2208 2.56769 37.316 5.25667
789 1 -1.1104 4.02938 33.1294 1.04653
790 1 -1.1104 3.86843 33.1361 3.83954
926 1 -1.1104 3.9215 30.3578 6.61458
796 1 -1.1104 6.77077 32.916 0.986237
776 1 -1.1104 6.80459 35.7482 3.89888
1069 2 2.2208 2.48257 37.2837 -0.298961
781 1 -1.1104 6.5539 33.0685 3.78449
794 1 -1.1104 6.77049 30.0523 1.06958
773 1 -1.1104 6.70288 35.8867 1.03498
795 1 -1.1104 6.55625 30.2262 3.89093
797 2 2.2208 10.973 34.6419 5.48292
798 1 -1.1104 12.2587 30.2877 1.02134
799 1 -1.1104 12.2248 35.9264 1.00311
800 1 -1.1104 12.3589 29.9773 3.7762
801 1 -1.1104 12.3241 35.9007 4.00425
802 1 -1.1104 12.3718 33.1748 0.993198
803 2 2.2208 10.874 31.6394 2.50063
804 2 2.2208 10.9067 37.2614 2.61785
805 1 -1.1104 12.2757 33.0198 3.88176
806 1 -1.1104 9.63509 30.4223 1.01711
807 1 -1.1104 9.51479 35.7869 1.06267
808 2 2.2208 8.1272 34.4992 2.39218
809 1 -1.1104 9.58886 30.2917 3.83499
810 1 -1.1104 9.58229 35.9968 3.95809
811 2 2.2208 8.06332 31.545 5.20754
812 2 2.2208 8.21654 37.2683 5.40969
813 1 -1.1104 9.57584 33.0703 0.991069
814 1 -1.1104 9.49047 33.0743 3.85697
959 1 -1.1104 9.62887 33.2459 6.73626
925 1 -1.1104 6.89817 32.9552 6.64413
958 1 -1.1104 9.55095 36.1108 6.9049