ITEM: TIMESTEP
100000
ITEM: NUMBER OF ATOMS
17640
ITEM: BOX BOUNDS pp pp pp
-4.0658911615751842e-01 2.7746589116158095e+01
-4.6844036468099750e+00 3.3276440364680383e+02
-3.9589316467123625e-01 2.7735893164671211e+01
ITEM: ATOMS id type q x y z
1 2 2.2208 5.38545 0.887901 5.13527
2 1 -1.1104 1.23392 -3.48536 0.836453
3 1 -1.1104 1.09025 2.11068 1.05862
6 1 -1.1104 1.27852 -3.25995 3.67698
7 1 -1.1104 1.19107 2.23975 3.81226
10 1 -1.1104 1.18751 -0.598398 0.80303
12 2 2.2208 5.34775 -2.02049 2.47342
14 1 -1.1104 1.09714 -0.689235 3.68932
16 1 -1.1104 4.08944 -3.36225 0.93779
17 1 -1.1104 3.89794 2.09279 0.976715
18 2 2.2208 2.5693 0.830679 2.25192
19 1 -1.1104 3.87302 -3.21711 3.76023
20 1 -1.1104 4.02214 2.45759 3.83932
21 2 2.2208 2.55111 -1.8359 5.12992
23 1 -1.1104 4.07263 -0.54135 0.951023
24 1 -1.1104 3.96086 -0.552034 3.66552
22 2 2.2208 2.56839 3.78734 5.27264
13 2 2.2208 5.6787 3.57826 2.3658
82 2 2.2208 -0.182337 9.21878 2.46445
26 2 2.2208 -0.322074 0.696255 5.02021
25 2 2.2208 -0.198368 -1.97953 2.34708
649 2 2.2208 11.0412 -4.7027 -0.41866
15 1 -1.1104 6.71572 -0.552808 3.79343
231 2 2.2208 8.26814 -4.67115 8.15919
27 2 2.2208 -0.129721 3.77844 2.48685
333 2 2.2208 0.0623412 9.39254 8.12142
232 2 2.2208 11.1895 -4.6645 10.9511
202 2 2.2208 2.62936 -4.6241 8.1748
9 1 -1.1104 6.88179 2.32239 3.82365
11 1 -1.1104 6.8074 -0.792581 0.968033
8 1 -1.1104 6.70644 -3.31664 3.82981
4 1 -1.1104 6.81335 -3.42217 1.11601
5 1 -1.1104 6.88079 2.02149 1.08913
31 2 2.2208 11.0586 0.895026 5.29974
32 1 -1.1104 12.4557 -3.33522 0.975448
33 1 -1.1104 12.37 2.36961 1.06586
34 1 -1.1104 12.3915 -3.27654 3.82054
35 1 -1.1104 12.2852 2.2779 3.84567
36 1 -1.1104 12.5632 -0.54443 0.885962
37 2 2.2208 11.0197 -2.03317 2.38288
39 1 -1.1104 12.5343 -0.447062 3.7119
40 1 -1.1104 9.67147 -3.39297 1.01885
41 1 -1.1104 9.48615 2.31648 0.938849
42 2 2.2208 8.26983 0.776196 2.45225
43 1 -1.1104 9.68234 -3.35377 3.79086
44 1 -1.1104 9.69979 2.21068 3.76436
45 2 2.2208 8.1171 -1.90956 5.18025
47 1 -1.1104 9.5974 -0.469689 0.90234
48 1 -1.1104 9.58571 -0.685192 3.72962
206 1 -1.1104 12.5398 2.19927 6.30045
200 2 2.2208 -0.200194 -1.90835 7.98533
332 2 2.2208 -0.125113 12.1807 10.7912
38 2 2.2208 10.9399 3.66015 2.44791
46 2 2.2208 8.31217 3.76539 5.29045
171 1 -1.1104 6.88448 -0.458713 6.56161
168 1 -1.1104 6.91576 -3.31985 6.60424
210 1 -1.1104 9.57416 -0.328252 6.62527
28 2 2.2208 2.52967 -4.69402 2.40579
374 2 2.2208 2.81753 14.949 -0.376187
204 2 2.2208 -0.129973 -4.61319 10.9642
54 2 2.2208 5.45724 6.53551 5.1558
55 2 2.2208 5.54007 12.0691 5.29339
56 1 -1.1104 1.24854 7.92096 0.926767
58 1 -1.1104 1.36377 7.82847 3.83212
60 1 -1.1104 1.31808 5.02079 1.19811
61 1 -1.1104 1.5131 10.7648 1.11564
66 2 2.2208 5.58633 9.30481 2.45323
67 1 -1.1104 1.32952 5.07415 3.73252
68 1 -1.1104 1.11491 10.7799 3.68389
71 1 -1.1104 4.12165 7.71322 1.00214
72 2 2.2208 2.88856 6.34324 2.34378
74 1 -1.1104 4.20849 7.9299 3.74484
75 2 2.2208 2.78678 9.21633 5.27754
76 1 -1.1104 4.232 4.98195 1.04561
77 1 -1.1104 4.3086 10.8183 1.04145
79 1 -1.1104 4.13472 5.02156 3.91602
80 1 -1.1104 4.12252 10.6659 3.92986
73 2 2.2208 2.66557 12.2085 2.55044
81 2 2.2208 -0.204429 6.5486 5.31395
383 2 2.2208 -0.0998419 6.48136 -0.322472
386 2 2.2208 11.152 12.0911 -0.396093
143 1 -1.1104 12.6168 13.6548 6.66857
306 1 -1.1104 6.86127 16.424 12.4007
234 1 -1.1104 1.25076 7.88168 6.56471
376 2 2.2208 2.59531 20.6118 -0.413969
360 2 2.2208 2.62551 17.7607 13.5583
63 1 -1.1104 6.86956 5.06993 0.895045
59 1 -1.1104 7.13309 7.96274 3.77114
64 1 -1.1104 6.97071 10.7736 1.0916
69 1 -1.1104 6.87399 5.33249 3.76674
70 1 -1.1104 6.80523 10.6508 3.90488
57 1 -1.1104 6.71349 7.99702 0.930688
84 2 2.2208 11.2009 6.407 5.16312
85 2 2.2208 11.1786 12.1427 5.26521
86 1 -1.1104 12.3998 7.99238 1.01303
87 1 -1.1104 12.5081 7.75062 3.80268
88 1 -1.1104 12.524 5.22471 1.0954
89 1 -1.1104 12.3978 10.8776 1.16507
91 2 2.2208 10.985 9.29698 2.37163
92 1 -1.1104 12.481 4.8924 3.80975
93 1 -1.1104 12.5005 10.5269 4.02637
94 1 -1.1104 9.53832 7.95679 0.934906
95 2 2.2208 8.33787 6.61318 2.3927
96 2 2.2208 8.39652 12.2248 2.51166
97 1 -1.1104 9.68506 7.9016 3.73824
98 2 2.2208 8.14273 9.32707 5.25974
99 1 -1.1104 9.82392 5.20467 0.948699
100 1 -1.1104 9.8009 10.7379 0.878851
102 1 -1.1104 9.61012 4.87556 3.63038
103 1 -1.1104 9.78885 10.6101 3.75052
266 1 -1.1104 12.5999 5.04746 6.64929
235 1 -1.1104 6.69018 8.01436 6.47847
337 2 2.2208 5.58538 -1.83991 13.6453
137 2 2.2208 -0.127992 17.6581 5.15674
136 2 2.2208 -0.163435 20.585 2.33695
106 2 2.2208 5.54019 17.5807 5.29049
107 1 -1.1104 1.54665 13.7746 1.00399
109 1 -1.1104 1.37498 19.3006 1.06553
113 1 -1.1104 1.36146 13.5191 3.83607
114 1 -1.1104 1.16043 18.9921 3.69571
116 1 -1.1104 1.37471 16.6016 1.21605
119 2 2.2208 5.56974 14.9763 2.4937
120 2 2.2208 5.51186 20.4979 2.40273
121 1 -1.1104 1.37064 16.2399 3.88185
123 1 -1.1104 4.17612 13.486 1.15246
125 1 -1.1104 4.03606 19.2485 1.17024
127 2 2.2208 2.77961 17.7757 2.52635
128 1 -1.1104 4.11313 13.5481 3.8264
129 1 -1.1104 4.23754 19.118 3.98709
130 2 2.2208 2.75371 14.8433 5.33633
131 2 2.2208 2.70165 20.5004 5.15097
132 1 -1.1104 4.27663 16.3975 1.05738
134 1 -1.1104 4.17497 16.1752 3.76585
135 2 2.2208 0.0612166 14.9916 2.47767
327 1 -1.1104 12.5009 19.2843 9.39303
133 1 -1.1104 4.16728 16.3424 6.54403
156 1 -1.1104 9.81417 19.3843 6.48112
325 2 2.2208 11.071 15.0008 8.1188
314 1 -1.1104 9.83167 16.3549 9.51862
322 1 -1.1104 9.75581 13.4092 12.3079
115 1 -1.1104 6.8912 13.5544 3.94592
122 1 -1.1104 6.8841 16.2015 3.90963
110 1 -1.1104 6.88931 13.5164 1.18253
139 1 -1.1104 6.93112 19.0087 3.57073
138 1 -1.1104 6.82896 19.1075 1.05726
140 1 -1.1104 7.15945 16.1901 1.14919
141 2 2.2208 11.2138 17.752 5.17123
142 1 -1.1104 12.3696 13.6576 1.02621
144 1 -1.1104 12.5588 19.0689 0.90985
146 1 -1.1104 12.6023 13.4359 3.71446
147 1 -1.1104 12.547 19.1258 3.75141
148 1 -1.1104 12.5481 16.2778 1.13993
150 2 2.2208 11.1532 14.9003 2.41696
151 2 2.2208 11.0381 20.5687 2.46779
152 1 -1.1104 12.5762 16.3194 3.77626
153 1 -1.1104 9.69518 13.5114 0.890309
155 1 -1.1104 9.61568 19.0929 1.08305
157 2 2.2208 8.39848 17.6879 2.5348
158 1 -1.1104 9.75758 13.5832 3.86114
159 1 -1.1104 9.61386 19.3164 3.82171
160 2 2.2208 8.33079 14.9402 5.24358
161 2 2.2208 8.08086 20.5817 5.14425
162 1 -1.1104 9.85387 16.3986 0.96832
164 1 -1.1104 9.76731 16.4972 3.9493
163 1 -1.1104 9.75484 16.2932 6.59255
361 2 2.2208 5.36981 20.5773 13.6117
145 1 -1.1104 12.476 19.06 6.69326
111 1 -1.1104 6.92143 13.6346 6.78818
172 1 -1.1104 4.23186 -3.36384 6.56551
83 2 2.2208 -0.0629865 12.0945 5.15438
339 2 2.2208 2.76149 0.960476 13.6765
199 2 2.2208 -0.141383 3.66099 8.00101
167 1 -1.1104 1.28544 2.30852 6.71994
329 1 -1.1104 12.6573 19.2131 12.3402
166 1 -1.1104 1.26487 -3.35193 6.60947
170 1 -1.1104 1.16901 -0.526466 6.72817
173 1 -1.1104 4.02939 2.05886 6.59376
174 1 -1.1104 3.92867 -0.565655 6.51165
201 2 2.2208 -0.213038 0.784322 11.0023
175 2 2.2208 5.51947 0.787015 10.7339
176 1 -1.1104 1.34555 -3.27837 12.2645
177 1 -1.1104 1.5067 2.24493 12.2189
180 1 -1.1104 1.35875 -3.16665 9.43711
181 1 -1.1104 1.27972 2.28264 9.50465
184 1 -1.1104 1.23681 -0.550073 12.2731
186 2 2.2208 5.47622 -1.90053 7.94256
188 1 -1.1104 1.00069 -0.604232 9.58656
190 1 -1.1104 3.96334 -3.27639 12.2562
191 1 -1.1104 4.07303 2.44054 12.4354
192 2 2.2208 2.49505 0.816553 8.15388
193 1 -1.1104 4.27835 -3.2194 9.46794
194 1 -1.1104 3.93967 2.20797 9.49034
195 2 2.2208 2.73037 -1.81517 10.9159
197 1 -1.1104 4.11502 -0.456269 12.3374
198 1 -1.1104 3.90027 -0.505096 9.50038
187 2 2.2208 5.28976 3.68941 8.0712
289 1 -1.1104 6.95752 16.4938 9.46607
196 2 2.2208 2.52852 3.68999 10.8471
321 1 -1.1104 9.69472 19.175 12.2419
205 1 -1.1104 12.4827 -3.45173 6.60501
207 1 -1.1104 12.3547 -0.539048 6.67016
112 1 -1.1104 6.99819 19.1116 6.64006
208 1 -1.1104 9.78201 -3.36345 6.78487
169 1 -1.1104 6.85061 2.29059 6.65505
154 1 -1.1104 9.63557 13.4923 6.70943
209 1 -1.1104 9.85896 2.44205 6.66027
179 1 -1.1104 7.02508 2.28551 12.0985
183 1 -1.1104 6.83188 2.15148 9.31788
185 1 -1.1104 6.85913 -0.557189 12.1333
178 1 -1.1104 6.81142 -3.42711 12.3959
182 1 -1.1104 6.90166 -3.45251 9.72403
189 1 -1.1104 6.89892 -0.739581 9.32051
211 2 2.2208 11.0631 0.853521 10.7441
212 1 -1.1104 12.461 -3.18102 12.1148
213 1 -1.1104 12.5174 2.28334 11.9717
214 1 -1.1104 12.6322 -3.25716 9.45963
215 1 -1.1104 12.595 2.33735 9.00825
216 1 -1.1104 12.5133 -0.54283 12.2247
217 2 2.2208 11.0768 -1.98476 8.09761
219 1 -1.1104 12.4277 -0.43308 9.42709
220 1 -1.1104 9.55989 -3.3357 12.2662
221 1 -1.1104 9.87857 2.24565 12.0522
222 2 2.2208 8.19999 0.825798 8.02883
223 1 -1.1104 9.77972 -3.4344 9.4934
224 1 -1.1104 9.82757 2.38847 9.33948
225 2 2.2208 8.35128 -1.97607 10.9277
227 1 -1.1104 9.59728 -0.517295 12.1927
228 1 -1.1104 9.63311 -0.493046 9.40381
226 2 2.2208 8.41562 3.65454 10.8702
218 2 2.2208 11.0227 3.90492 8.01683
296 1 -1.1104 6.85606 19.3183 12.1646
62 1 -1.1104 1.32551 10.5593 6.68509
238 1 -1.1104 3.95778 7.79685 6.62278
78 1 -1.1104 4.25824 10.5907 6.75926
239 1 -1.1104 3.97774 4.95251 6.8868
236 1 -1.1104 1.28862 5.15291 6.71334
334 2 2.2208 -0.191765 6.51787 10.9255
240 2 2.2208 5.43183 6.49279 10.8095
241 2 2.2208 5.51766 12.1493 10.9416
242 1 -1.1104 1.41622 7.85711 12.2438
244 1 -1.1104 1.29036 7.7586 9.47826
246 1 -1.1104 1.27927 5.07858 12.2652
247 1 -1.1104 1.15251 10.7485 12.3276
250 2 2.2208 5.49592 9.20338 8.04218
251 1 -1.1104 1.03648 4.95455 9.42545
252 1 -1.1104 1.35258 10.8784 9.56232
255 1 -1.1104 4.06085 7.77448 12.2635
256 2 2.2208 2.63523 6.51714 8.06318
257 2 2.2208 2.76359 12.1511 8.1588
258 1 -1.1104 3.97468 7.94295 9.43048
259 2 2.2208 2.68025 9.2936 11.0149
260 1 -1.1104 4.13958 5.20658 12.2711
261 1 -1.1104 4.17313 10.7584 12.4241
262 1 -1.1104 3.79827 5.25618 9.6283
263 1 -1.1104 4.03364 10.6998 9.6476
318 1 -1.1104 9.71032 19.1536 9.28632
243 1 -1.1104 7.0789 8.0112 12.1843
245 1 -1.1104 6.8418 7.95502 9.31608
165 1 -1.1104 12.4478 13.4436 12.1181
326 1 -1.1104 12.6581 16.2897 12.2793
317 2 2.2208 8.22495 14.9207 10.9269
237 1 -1.1104 6.78481 5.2248 6.64465
269 1 -1.1104 9.80355 5.24034 6.57219
90 1 -1.1104 12.6025 10.6924 6.6672
65 1 -1.1104 6.86337 10.6863 6.82315
101 1 -1.1104 9.68403 10.6711 6.59843
265 1 -1.1104 12.3879 7.92984 6.64376
267 1 -1.1104 9.57716 7.9003 6.46849
248 1 -1.1104 6.8763 4.90283 12.0553
254 1 -1.1104 6.74782 10.6874 9.59842
253 1 -1.1104 6.81833 4.91454 9.41481
249 1 -1.1104 6.77622 10.6587 12.4996
264 1 -1.1104 9.52808 10.6761 9.39643
268 1 -1.1104 9.69352 5.14057 9.41104
270 1 -1.1104 9.50094 10.6171 12.2763
271 1 -1.1104 9.67291 5.10203 12.3901
272 2 2.2208 8.27118 9.20569 10.842
273 1 -1.1104 9.81009 7.75161 9.28453
274 2 2.2208 8.36678 12.2027 8.06359
275 2 2.2208 8.20248 6.53794 7.88423
276 2 2.2208 11.2067 6.43567 10.8146
277 2 2.2208 10.9977 12.0485 10.9149
278 1 -1.1104 12.53 7.85384 12.2814
279 1 -1.1104 12.4977 7.89754 9.40178
280 1 -1.1104 12.4664 5.02597 12.2891
281 1 -1.1104 12.3919 10.6263 12.25
282 2 2.2208 11.0944 9.24611 7.90362
283 1 -1.1104 12.4026 5.14129 9.42522
284 1 -1.1104 12.3884 10.7468 9.46615
285 1 -1.1104 9.7747 7.92679 11.9628
328 1 -1.1104 12.2953 13.36 9.29767
302 1 -1.1104 1.38509 19.2285 6.59254
117 1 -1.1104 1.24408 16.4174 6.72334
108 1 -1.1104 1.36728 13.382 6.67423
124 1 -1.1104 4.10683 13.1371 6.6657
126 1 -1.1104 4.0255 19.0596 6.65219
313 2 2.2208 -0.141116 15.0657 7.93548
311 2 2.2208 -0.254679 20.5739 7.90764
312 2 2.2208 -0.165258 17.8487 10.7985
294 1 -1.1104 1.23902 13.4442 9.27573
298 1 -1.1104 1.11001 19.3865 11.9873
293 2 2.2208 5.38291 20.6283 7.91114
295 2 2.2208 5.57395 14.9923 8.23702
292 1 -1.1104 1.32757 16.3843 9.3996
310 2 2.2208 2.57746 14.9746 10.8081
309 2 2.2208 2.55674 20.7678 10.8221
308 1 -1.1104 4.01319 16.3659 12.2025
307 1 -1.1104 1.21309 16.3792 12.2116
305 1 -1.1104 3.92335 13.8173 9.38982
304 1 -1.1104 4.16436 16.4827 9.34352
291 1 -1.1104 1.09688 19.253 9.29204
303 2 2.2208 2.60411 17.8343 8.04315
301 1 -1.1104 3.79601 19.2113 9.70657
287 1 -1.1104 3.96052 13.7167 12.2159
286 1 -1.1104 3.90714 19.3275 12.2315
300 2 2.2208 5.6194 17.8134 10.8302
299 1 -1.1104 1.31863 13.6156 12.2077
315 1 -1.1104 9.69184 16.2913 12.2826
297 1 -1.1104 6.75273 13.4334 12.2462
324 2 2.2208 11.1203 20.5489 7.96363
288 1 -1.1104 6.82068 19.1775 9.35789
319 1 -1.1104 9.5561 13.4897 9.47783
290 1 -1.1104 6.84458 13.4206 9.70023
118 1 -1.1104 7.02613 16.3053 6.61054
149 1 -1.1104 12.397 16.3594 6.65121
105 2 2.2208 11.2987 17.8231 10.7387
320 2 2.2208 8.41793 17.7335 7.99656
323 1 -1.1104 12.4905 16.2472 9.56186
316 2 2.2208 8.26393 20.5912 10.839
357 2 2.2208 8.24798 6.5196 13.5584
385 2 2.2208 8.17912 9.35281 -0.278578
353 2 2.2208 11.1831 3.63813 13.5512
358 2 2.2208 10.8756 9.34539 13.552
368 2 2.2208 2.5276 3.52727 -0.256226
375 2 2.2208 5.54723 17.8141 -0.33955
382 2 2.2208 0.025956 12.2723 -0.223471
381 2 2.2208 5.6692 12.205 -0.309486
9453 2 2.2208 -0.278356 15.0318 13.5643
364 2 2.2208 11.133 14.9641 13.6426
349 2 2.2208 11.1557 17.8191 -0.384802
350 2 2.2208 8.14614 20.4863 -0.173124
380 2 2.2208 2.64542 9.24628 -0.266675
379 2 2.2208 5.55858 6.48703 -0.375308
372 2 2.2208 0.0782902 17.7678 -0.164038
9454 2 2.2208 -0.265664 20.5777 13.3876
340 2 2.2208 5.57327 3.78059 13.6277
388 2 2.2208 5.3664 0.84445 16.4872
389 1 -1.1104 1.46352 -3.23461 17.9286
390 1 -1.1104 1.2928 2.25453 18.0833
393 1 -1.1104 1.44441 -3.32413 15.1009
395 1 -1.1104 1.2495 2.19425 15.1796
401 1 -1.1104 1.46235 -0.636388 18.0006
403 2 2.2208 5.54939 -1.89334 19.2606
405 1 -1.1104 1.09672 -0.596043 15.08
409 1 -1.1104 4.04224 -3.31614 17.7715
410 1 -1.1104 4.046 2.47939 18.0759
411 2 2.2208 2.6615 0.979786 19.4054
412 1 -1.1104 4.30634 -3.52033 15.0107
414 1 -1.1104 4.09927 2.24719 15.2546
416 2 2.2208 2.74452 -1.96598 16.512
418 1 -1.1104 4.20179 -0.356541 17.9643
419 1 -1.1104 3.81653 -0.596196 15.0928
417 2 2.2208 2.74811 3.78469 16.4902
335 2 2.2208 -0.127086 -2.0012 13.6634
413 1 -1.1104 4.0112 -3.44552 20.6756
425 2 2.2208 -0.23327 -1.95451 19.2949
424 2 2.2208 -0.125146 0.952553 16.485
430 2 2.2208 -0.198787 3.61871 19.3799
399 1 -1.1104 6.9616 2.28639 14.9949
392 1 -1.1104 6.57658 2.31707 17.7031
351 2 2.2208 8.44865 0.977275 13.6911
404 2 2.2208 5.35903 3.7248 19.306
623 2 2.2208 -0.203046 17.8558 22.0776
367 2 2.2208 2.83569 -2.00527 27.5732
338 2 2.2208 -0.258966 9.28868 13.6848
352 2 2.2208 11.0398 -1.81809 13.7003
394 1 -1.1104 1.03587 -3.23508 20.6742
420 1 -1.1104 4.05414 -0.608769 20.7873
645 2 2.2208 -0.186914 20.4797 24.8787
562 1 -1.1104 7.06233 18.9926 26.5528
391 1 -1.1104 6.95448 -3.30601 17.7403
9681 2 2.2208 -0.037841 20.4066 19.2762
407 1 -1.1104 6.89978 -0.451556 15.1075
397 1 -1.1104 7.00883 -3.29453 15.0138
402 1 -1.1104 7.00565 -0.595704 17.9366
431 2 2.2208 11.1943 0.909743 16.5177
432 1 -1.1104 12.5429 -3.24025 17.834
433 1 -1.1104 12.4655 2.40632 17.7033
434 1 -1.1104 12.5606 -3.38655 14.847
436 1 -1.1104 12.5939 2.12409 14.9617
438 1 -1.1104 12.5191 -0.509212 17.8471
439 2 2.2208 11.1888 -1.98673 19.2659
441 1 -1.1104 12.5433 -0.66988 15.0514
443 1 -1.1104 9.96506 -3.51003 17.9319
444 1 -1.1104 9.43734 2.20348 17.8195
445 2 2.2208 8.19761 0.854662 19.1633
446 1 -1.1104 9.80452 -3.39755 14.9043
448 1 -1.1104 9.78415 2.24744 14.9505
450 2 2.2208 8.35037 -1.9659 16.3889
452 1 -1.1104 9.83737 -0.787629 17.7392
453 1 -1.1104 9.82976 -0.488027 15.0702
451 2 2.2208 8.27157 3.6509 16.4977
442 1 -1.1104 12.5321 -0.613797 20.5972
462 1 -1.1104 12.5001 19.1411 23.4593
366 2 2.2208 5.47131 0.697535 27.7537
537 1 -1.1104 6.69551 13.4545 20.6779
398 1 -1.1104 6.83435 -3.39405 20.662
539 1 -1.1104 6.86444 19.0999 20.9247
499 2 2.2208 11.0601 14.7651 24.8885
574 1 -1.1104 12.5825 16.0546 20.8061
429 2 2.2208 -0.160207 9.30731 19.2949
428 2 2.2208 -0.317134 6.55986 16.5074
464 2 2.2208 5.48157 6.60193 16.508
465 2 2.2208 5.25148 12.2557 16.5938
466 1 -1.1104 1.05127 8.02546 17.8625
468 1 -1.1104 1.12199 8.00299 15.1866
472 1 -1.1104 1.23988 5.02607 17.9536
473 1 -1.1104 1.10705 10.7536 17.8543
476 2 2.2208 5.3587 9.49769 19.3865
477 1 -1.1104 1.38712 5.16498 15.0599
479 1 -1.1104 1.22424 10.8117 15.1626
485 1 -1.1104 4.00383 8.1495 17.7697
486 2 2.2208 2.57131 6.69808 19.2393
487 2 2.2208 2.51672 12.074 19.1964
488 1 -1.1104 3.89209 8.0236 14.9769
490 2 2.2208 2.46471 9.47349 16.4793
491 1 -1.1104 3.8785 5.38572 17.8054
492 1 -1.1104 3.80051 10.8317 17.8994
493 1 -1.1104 4.18177 5.15186 15.2222
495 1 -1.1104 3.94891 10.7593 15.1676
355 2 2.2208 5.37823 9.3457 13.7581
483 1 -1.1104 6.6259 10.7327 15.2676
354 2 2.2208 2.72072 6.45141 13.7118
624 2 2.2208 0.0350011 -2.05602 24.785
525 1 -1.1104 12.3444 16.3929 26.305
440 2 2.2208 11.1026 3.63331 19.236
467 1 -1.1104 6.83471 7.83277 17.9584
475 1 -1.1104 6.71971 10.7009 17.8139
474 1 -1.1104 6.78521 5.04004 17.7684
481 1 -1.1104 6.97903 5.08143 14.7195
470 1 -1.1104 6.61987 7.81896 15.0205
500 2 2.2208 11.0315 6.51004 16.4565
501 2 2.2208 10.993 12.1772 16.4733
502 1 -1.1104 12.502 7.98958 17.7451
503 1 -1.1104 12.3107 7.90947 14.9678
505 1 -1.1104 12.5512 5.0577 17.8696
506 1 -1.1104 12.3055 10.7507 17.8764
507 2 2.2208 10.984 9.40808 19.2096
508 1 -1.1104 12.4941 5.28108 15.1028
510 1 -1.1104 12.4008 10.9786 14.8822
512 1 -1.1104 9.60097 7.92849 17.8938
513 2 2.2208 8.32888 6.43235 19.3189
514 2 2.2208 8.08672 11.9971 19.3372
515 1 -1.1104 9.55115 7.84861 14.8959
517 2 2.2208 8.19178 9.39585 16.395
518 1 -1.1104 9.71728 5.33765 18.0264
519 1 -1.1104 9.50636 10.66 17.8581
520 1 -1.1104 9.69321 4.99757 15.1363
522 1 -1.1104 9.45193 10.8067 14.9746
509 1 -1.1104 12.3278 5.10813 20.8
523 1 -1.1104 9.65992 10.7956 20.7319
521 1 -1.1104 9.5999 4.90037 20.5198
9577 2 2.2208 -0.305155 12.2102 16.4965
461 1 -1.1104 12.4751 13.6161 23.5074
497 1 -1.1104 12.5337 19.2554 26.323
527 2 2.2208 5.46191 17.8315 16.4124
528 1 -1.1104 1.16561 13.5472 17.8848
529 1 -1.1104 1.33272 19.0031 17.8058
532 1 -1.1104 1.06425 13.5586 14.8997
534 1 -1.1104 1.22326 19.064 14.9641
540 1 -1.1104 1.27925 16.3359 18.0377
542 2 2.2208 5.307 14.8747 19.3183
543 2 2.2208 5.36469 20.8188 19.2884
544 1 -1.1104 1.1286 16.3061 15.1814
548 1 -1.1104 3.95938 13.727 17.9142
549 1 -1.1104 4.17033 19.1145 17.7067
550 2 2.2208 2.74613 17.6236 19.2822
551 1 -1.1104 3.8866 13.5769 15.1404
553 1 -1.1104 4.23099 19.31 14.9268
555 2 2.2208 2.63266 15.0093 16.4901
556 2 2.2208 2.5222 20.519 16.4335
557 1 -1.1104 4.17145 16.3683 17.7958
558 1 -1.1104 4.13941 16.5456 15.0467
9682 2 2.2208 -0.225191 14.857 19.3048
369 2 2.2208 -0.0846308 0.783733 27.5789
538 1 -1.1104 6.9672 19.1663 15.0147
460 2 2.2208 10.901 17.8654 22.166
581 1 -1.1104 9.68077 19.1041 20.7299
554 1 -1.1104 3.97793 19.1943 20.6542
559 1 -1.1104 3.84477 16.1457 20.693
524 2 2.2208 11.108 20.6591 25.1147
356 2 2.2208 2.68655 12.0922 13.6361
546 1 -1.1104 6.87015 16.3199 15.1897
536 1 -1.1104 6.77904 13.6858 15.022
531 1 -1.1104 6.86943 19.2359 17.9509
530 1 -1.1104 6.79173 13.347 17.8689
541 1 -1.1104 6.95484 16.298 17.9472
563 2 2.2208 11.008 17.8373 16.5217
564 1 -1.1104 12.4585 13.556 17.7284
565 1 -1.1104 12.6245 19.0755 17.9045
566 1 -1.1104 12.4097 13.6654 14.9238
568 1 -1.1104 12.3978 19.1543 15.0896
570 1 -1.1104 12.4843 16.3202 17.9496
571 2 2.2208 11.0344 14.9386 19.1761
572 2 2.2208 11.0017 20.6173 19.3837
573 1 -1.1104 12.4786 16.5853 15.0449
575 1 -1.1104 9.68377 13.4391 18.0122
576 1 -1.1104 9.62193 19.1472 17.8895
577 2 2.2208 8.25887 17.7813 19.372
578 1 -1.1104 9.49265 13.5113 15.096
580 1 -1.1104 9.48765 19.2371 15.0082
582 2 2.2208 8.20533 14.8451 16.5103
583 2 2.2208 8.23706 20.6255 16.4926
584 1 -1.1104 9.6781 16.4355 17.8561
585 1 -1.1104 9.91025 16.2946 15.0952
567 1 -1.1104 12.2385 13.4094 20.5377
569 1 -1.1104 12.4633 19.0999 20.718
616 1 -1.1104 9.5501 16.3601 23.4146
587 1 -1.1104 9.47187 13.5671 26.1363
626 2 2.2208 -0.205851 3.58629 25.1009
9683 2 2.2208 -0.0548026 17.8099 16.5575
406 1 -1.1104 1.20969 -0.439854 20.7282
396 1 -1.1104 1.26125 2.5118 20.8324
415 1 -1.1104 4.07691 2.2574 20.712
591 2 2.2208 5.46643 0.823106 21.9816
592 1 -1.1104 1.29574 -3.34174 23.3087
593 1 -1.1104 1.1812 2.40027 23.5718
596 1 -1.1104 1.4871 -3.38274 26.1673
597 1 -1.1104 1.13392 2.20036 26.1309
600 1 -1.1104 1.32791 -0.371839 23.429
602 2 2.2208 5.58031 -2.03863 24.8072
604 1 -1.1104 1.50303 -0.738225 26.2158
606 1 -1.1104 4.23774 -3.37732 23.4109
607 1 -1.1104 3.98995 2.3894 23.494
608 2 2.2208 2.76375 0.879432 24.7801
609 1 -1.1104 4.22488 -3.43177 26.1313
610 1 -1.1104 4.06435 1.97945 26.2352
611 2 2.2208 2.75659 -1.82891 22.1464
613 1 -1.1104 4.26132 -0.544977 23.559
614 1 -1.1104 4.28049 -0.768578 26.2353
612 2 2.2208 2.54048 3.74908 22.0807
603 2 2.2208 5.3934 3.52154 25.0824
625 2 2.2208 -0.231139 0.957746 22.1572
588 1 -1.1104 9.86724 19.3015 26.605
681 1 -1.1104 6.6906 16.4327 23.6751
617 1 -1.1104 9.8284 16.299 26.3177
579 1 -1.1104 9.47674 13.4814 20.835
435 1 -1.1104 12.4707 -3.38536 20.6111
454 1 -1.1104 9.60607 -0.466497 20.498
400 1 -1.1104 6.80087 2.22197 20.6202
437 1 -1.1104 12.5301 2.19888 20.3236
447 1 -1.1104 9.62542 -3.28128 20.6802
408 1 -1.1104 6.83244 -0.530667 20.657
595 1 -1.1104 6.73611 2.19173 23.7005
599 1 -1.1104 6.94492 2.1992 26.458
598 1 -1.1104 6.96903 -3.29034 26.3653
601 1 -1.1104 6.96556 -0.778957 23.4435
605 1 -1.1104 7.08091 -0.643226 26.3359
594 1 -1.1104 6.95902 -3.41415 23.4609
449 1 -1.1104 9.73008 2.12848 20.5974
627 2 2.2208 11.0545 0.698361 22.0672
628 1 -1.1104 12.532 -3.21462 23.608
629 1 -1.1104 12.3171 2.1756 23.2801
630 1 -1.1104 12.5107 -3.2769 26.225
631 1 -1.1104 12.4013 2.31682 26.181
632 1 -1.1104 12.4124 -0.63355 23.471
633 2 2.2208 11.1211 -1.86213 24.9006
635 1 -1.1104 12.5274 -0.491607 26.1709
636 1 -1.1104 9.76448 -3.28284 23.5235
637 1 -1.1104 9.5908 2.227 23.3352
638 2 2.2208 8.26783 0.72368 24.8706
639 1 -1.1104 9.83076 -3.27471 26.3342
640 1 -1.1104 9.76481 2.30874 26.0272
641 2 2.2208 8.2448 -2.14168 22.1342
643 1 -1.1104 9.56702 -0.658332 23.4246
644 1 -1.1104 9.79746 -0.355994 26.2574
634 2 2.2208 11.0858 3.63196 24.7908
642 2 2.2208 8.26045 3.62916 22.0114
615 2 2.2208 8.22524 20.6147 22.2116
685 2 2.2208 -0.120854 11.9932 22.2108
496 1 -1.1104 3.96186 10.8067 20.5904
469 1 -1.1104 1.04314 7.93851 20.6957
478 1 -1.1104 0.959359 5.21007 20.9033
480 1 -1.1104 1.28245 10.5962 20.5364
489 1 -1.1104 3.91 7.94954 20.6683
494 1 -1.1104 3.97226 5.05581 20.8871
656 2 2.2208 5.34999 6.44308 22.0912
657 2 2.2208 5.34038 12.1807 22.0246
658 1 -1.1104 1.12397 8.04742 23.519
660 1 -1.1104 1.25503 7.97404 26.2474
662 1 -1.1104 1.13886 5.22086 23.6803
663 1 -1.1104 1.16447 10.8632 23.708
666 2 2.2208 5.42821 9.35735 24.8881
667 1 -1.1104 1.27632 4.95977 26.4388
668 1 -1.1104 1.3747 10.8492 26.5208
671 1 -1.1104 4.06227 7.56542 23.6014
672 2 2.2208 2.71297 6.39309 25.0801
673 2 2.2208 2.66529 12.1395 25.0856
674 1 -1.1104 4.09214 7.69372 26.4384
675 2 2.2208 2.48015 9.26211 22.0847
676 1 -1.1104 3.97912 4.96248 23.6922
677 1 -1.1104 3.90144 10.6624 23.5249
678 1 -1.1104 4.18571 4.88375 26.4729
679 1 -1.1104 4.11597 10.7997 26.48
684 2 2.2208 -0.142265 9.26338 25.0532
426 2 2.2208 -0.363804 6.35453 22.3042
482 1 -1.1104 6.91207 5.08679 20.5359
484 1 -1.1104 6.74776 10.6872 20.7011
504 1 -1.1104 12.3374 8.03439 20.5219
670 1 -1.1104 6.90277 10.5376 26.2824
471 1 -1.1104 6.79309 8.15057 20.7241
665 1 -1.1104 6.80521 10.9274 23.541
664 1 -1.1104 6.87886 4.89034 23.3923
669 1 -1.1104 6.88668 5.00829 26.263
661 1 -1.1104 6.88576 7.73979 26.2925
511 1 -1.1104 12.4066 10.6176 20.6082
516 1 -1.1104 9.73228 7.99337 20.7935
659 1 -1.1104 6.84968 7.83374 23.5526
687 1 -1.1104 9.67268 10.6807 26.3591
688 1 -1.1104 9.74017 5.03936 26.1684
689 1 -1.1104 9.76341 10.7452 23.4924
690 1 -1.1104 9.48336 5.22497 23.3378
691 2 2.2208 8.37541 9.25486 22.1433
692 1 -1.1104 9.7876 7.9752 26.3916
693 2 2.2208 8.30374 12.0167 24.8845
694 2 2.2208 8.29053 6.39095 24.9681
695 2 2.2208 10.9049 6.56252 22.1191
696 2 2.2208 11.0275 12.1608 22.1197
697 1 -1.1104 12.4709 7.7885 23.3853
698 1 -1.1104 12.5783 7.91193 26.1851
699 1 -1.1104 12.2804 5.13543 23.3748
700 1 -1.1104 12.4638 10.7231 23.5921
701 2 2.2208 11.1293 9.44942 25.0036
702 1 -1.1104 12.6094 4.92822 26.1984
703 1 -1.1104 12.6939 10.5762 26.3254
704 1 -1.1104 9.7762 7.93506 23.6958
721 1 -1.1104 6.60328 13.593 23.3301
526 1 -1.1104 9.52636 13.4405 23.6263
535 1 -1.1104 1.26573 19.2405 20.8482
533 1 -1.1104 1.14619 13.3869 20.726
712 1 -1.1104 6.82977 13.5618 26.425
646 2 2.2208 -0.15649 15.0084 24.8825
545 1 -1.1104 1.07777 16.4139 20.6513
586 1 -1.1104 9.68873 16.3072 20.6343
552 1 -1.1104 3.85501 13.6729 20.639
647 2 2.2208 2.56464 14.8975 22.2162
652 2 2.2208 2.66756 20.6565 22.1268
655 1 -1.1104 3.78019 16.4605 23.5946
680 1 -1.1104 1.17607 16.4202 23.4506
682 1 -1.1104 4.07569 13.5458 26.4531
683 1 -1.1104 4.29632 16.367 26.3754
686 2 2.2208 2.55115 17.8119 24.8794
705 1 -1.1104 4.12816 19.2327 26.4161
706 2 2.2208 5.38618 17.8098 22.2977
707 1 -1.1104 1.13964 13.615 23.5597
709 1 -1.1104 1.16934 19.2565 23.4471
711 1 -1.1104 3.93767 19.2778 23.5431
713 1 -1.1104 3.90144 13.6725 23.7705
715 1 -1.1104 1.08397 19.3327 26.4965
716 1 -1.1104 1.67547 16.503 26.3411
717 1 -1.1104 1.18143 13.6774 26.4015
719 2 2.2208 5.437 20.6644 25.0693
720 2 2.2208 5.37656 14.9293 24.9959
463 1 -1.1104 12.6085 13.4449 26.2389
560 1 -1.1104 9.54527 19.1222 23.707
714 1 -1.1104 6.90978 16.3747 26.3509
589 2 2.2208 8.19487 14.957 22.1621
498 1 -1.1104 12.2639 16.2936 23.5868
547 1 -1.1104 6.80481 16.3405 20.8035
561 2 2.2208 8.24948 17.6843 24.9676
718 1 -1.1104 6.7382 19.1277 23.914
342 2 2.2208 -0.17569 3.70049 13.8132
373 2 2.2208 8.33803 3.54722 27.6337
384 2 2.2208 11.0359 6.46768 27.6917
371 2 2.2208 8.17612 -1.9684 27.7056
362 2 2.2208 5.49779 15.0459 13.7943
365 2 2.2208 8.415 17.6977 13.7589
336 2 2.2208 2.7417 -4.56673 13.8023
363 2 2.2208 11.0655 20.5519 13.7652
359 2 2.2208 8.082 12.0768 13.6975
348 2 2.2208 8.46694 15.0505 27.6374
370 2 2.2208 10.9897 0.933845 27.7168
722 2 2.2208 5.33491 23.3443 5.0643
723 2 2.2208 5.45365 29.0374 5.32843
724 1 -1.1104 1.0786 24.9966 1.02568
725 1 -1.1104 1.08599 24.7999 3.71074
726 1 -1.1104 1.33267 22.0198 1.06144
727 1 -1.1104 1.05742 27.6633 0.941542
728 2 2.2208 5.48667 26.3637 2.44064
729 1 -1.1104 1.32058 22.2369 3.62565
730 1 -1.1104 1.33616 27.6478 3.672
731 1 -1.1104 4.0705 25.0075 1.2412
732 2 2.2208 2.64177 23.4324 2.44605
733 2 2.2208 2.78989 29.1388 2.49701
734 1 -1.1104 3.88357 24.831 4.05809
735 2 2.2208 2.57157 26.2544 5.27492
736 1 -1.1104 3.95539 22.0917 0.729045
737 1 -1.1104 4.01448 27.7214 1.02786
738 1 -1.1104 4.09252 21.9548 3.66769
739 1 -1.1104 4.06818 27.6503 4.08106
865 1 -1.1104 1.30579 22.0039 6.3846
863 1 -1.1104 0.910787 25.1012 6.59163
740 2 2.2208 -0.325812 29.1625 5.27198
741 2 2.2208 -0.32068 23.6089 5.05961
871 1 -1.1104 3.91295 27.5979 6.76498
870 1 -1.1104 3.96747 21.9202 6.47219
866 1 -1.1104 1.1677 27.79 6.63518
742 2 2.2208 -0.185396 26.2284 2.25932
9980 2 2.2208 -0.198564 23.384 10.8809
1023 1 -1.1104 12.1824 44.7962 6.84361
1583 1 -1.1104 6.68752 47.1693 12.2148
746 1 -1.1104 6.75892 27.5701 1.07693
744 1 -1.1104 6.77308 24.7939 3.76037
743 1 -1.1104 6.86943 24.5915 1.0386
745 1 -1.1104 6.72089 22.0454 1.13762
747 1 -1.1104 6.80253 21.9093 3.67432
748 1 -1.1104 6.922 27.7984 3.96223
749 2 2.2208 11.0234 23.4202 5.21037
750 2 2.2208 10.9421 29.135 5.33767
751 1 -1.1104 12.4174 24.8828 1.25559
752 1 -1.1104 12.4608 24.7663 3.80986
753 1 -1.1104 12.3874 21.887 1.04008
754 1 -1.1104 12.2178 27.8307 1.33869
755 2 2.2208 10.9561 26.3068 2.54623
756 1 -1.1104 12.605 21.8153 3.77376
757 1 -1.1104 12.4425 27.8508 4.12103
758 1 -1.1104 9.68296 24.9887 1.06474
759 2 2.2208 8.28958 23.4004 2.49691
760 2 2.2208 8.18637 29.2199 2.35495
761 1 -1.1104 9.51125 24.8356 3.83446
762 2 2.2208 8.14561 26.2968 5.21659
763 1 -1.1104 9.63468 22.0001 1.20488
764 1 -1.1104 9.55336 27.8941 1.05911
765 1 -1.1104 9.59035 21.9585 3.98547
766 1 -1.1104 9.62591 27.7287 3.84045
896 1 -1.1104 12.4638 24.8442 6.49139
1019 1 -1.1104 9.46311 41.7858 9.2155
1577 1 -1.1104 0.990658 47.3557 6.72624
770 2 2.2208 5.27313 34.5777 5.51005
771 1 -1.1104 1.16265 30.4203 0.981603
772 1 -1.1104 1.20324 36.0652 0.827069
774 1 -1.1104 1.06762 30.4914 3.89138
775 1 -1.1104 1.16383 36.0306 3.69493
777 1 -1.1104 1.15855 33.204 0.948187
778 2 2.2208 5.44201 32.0898 2.58407
779 2 2.2208 5.48212 37.4451 2.45339
780 1 -1.1104 1.26795 33.2716 3.68614
782 1 -1.1104 4.16529 30.5209 1.14215
783 1 -1.1104 4.13231 36.065 0.966886
784 2 2.2208 2.57915 34.772 2.32606
785 1 -1.1104 4.03099 30.4892 3.90659
786 1 -1.1104 4.10991 36.1391 3.79456
787 2 2.2208 2.56789 31.8513 5.26837
788 2 2.2208 2.63679 37.5192 5.2482
789 1 -1.1104 3.88916 33.2602 1.0225
790 1 -1.1104 4.0233 33.2697 3.88842
924 1 -1.1104 1.26728 33.503 6.68684
791 2 2.2208 -0.268545 34.7201 5.22584
1024 1 -1.1104 12.3437 39.1511 9.46871
1586 1 -1.1104 7.0497 47.3263 9.26474
1040 2 2.2208 8.13387 23.3823 13.5336
926 1 -1.1104 4.00245 30.4851 6.64511
920 1 -1.1104 1.04701 30.649 6.62248
793 2 2.2208 -0.156075 31.8523 2.31964
1037 2 2.2208 5.43388 26.1977 13.6711
1062 2 2.2208 5.40275 46.0669 -0.38718
1011 2 2.2208 -0.139281 43.1905 8.02892
922 1 -1.1104 6.70976 30.4053 6.91655
795 1 -1.1104 6.79237 30.6242 3.96122
781 1 -1.1104 6.61717 33.4107 3.93839
794 1 -1.1104 6.90447 30.4338 0.91158
925 1 -1.1104 6.71865 33.1755 6.85047
796 1 -1.1104 6.8315 33.1853 1.08549
773 1 -1.1104 7.03027 36.0105 1.07688
776 1 -1.1104 6.75056 36.1625 3.98518
797 2 2.2208 11.0558 34.8845 5.23867
798 1 -1.1104 12.4948 30.6285 0.940599
799 1 -1.1104 12.4145 36.2677 0.937267
800 1 -1.1104 12.5923 30.5831 3.76696
801 1 -1.1104 12.6793 36.3285 3.7884
802 1 -1.1104 12.6401 33.3817 1.06651
803 2 2.2208 11.0722 31.9732 2.49985
804 2 2.2208 10.9408 37.6616 2.30313
805 1 -1.1104 12.3012 33.449 3.78017
806 1 -1.1104 9.58621 30.6133 1.12586
807 1 -1.1104 9.78375 36.1288 1.08182
808 2 2.2208 8.30698 34.6916 2.48508
809 1 -1.1104 9.4759 30.5143 3.91276
810 1 -1.1104 9.66736 36.0119 3.80533