ITEM: TIMESTEP
300000
ITEM: NUMBER OF ATOMS
18000
ITEM: BOX BOUNDS xy xz yz pp pp pp
-1.0873632701920903e-01 2.8002736327019122e+01 0.0000000000000000e+00
-1.3388954816790726e+00 3.3606689548166520e+02 0.0000000000000000e+00
-1.0610270012741185e-01 2.8000102700127574e+01 0.0000000000000000e+00
ITEM: ATOMS id type x y z
1 1 1.47232 0.0757096 1.28793
2 1 4.39344 0.142416 1.27562
3 1 4.14673 0.138831 4.09436
4 1 1.35171 0.0282444 4.17144
5 1 1.43602 2.78423 1.2087
6 1 4.19709 2.90716 1.46377
7 1 3.90076 3.1727 4.31933
8 1 1.25989 2.79711 4.10174
9 1 7.12167 0.0332757 1.46247
10 1 9.96459 0.0271868 1.28568
11 1 9.79112 0.204955 4.1007
12 1 6.9437 0.127916 4.16033
13 1 7.08947 2.93874 1.24248
14 1 9.93991 2.82687 1.40615
15 1 9.81313 2.89965 4.00875
16 1 6.80047 2.89402 4.08033
17 1 12.6606 0.0538702 1.39039
18 1 12.5559 0.169844 4.1096
19 1 12.6784 2.78661 1.23103
20 1 12.6012 2.92764 3.95807
21 1 1.26537 5.69068 1.26143
22 1 4.27767 5.61964 1.16729
23 1 4.21143 5.90026 4.00675
24 1 1.3352 5.66583 4.12107
25 1 1.45037 8.37691 1.59449
26 1 4.23618 8.46891 1.26512
27 1 4.08729 8.52014 4.26374
28 1 1.25085 8.47109 4.43008
29 1 7.07464 5.78203 1.32183
30 1 9.90894 5.55225 1.16615
31 1 9.69614 5.71502 4.05568
32 1 6.88295 5.71337 3.97504
33 1 6.94646 8.52105 1.23095
34 1 9.81587 8.41357 1.47289
35 1 9.81587 8.50724 4.22811
36 1 6.97397 8.46722 4.0557
37 1 12.5704 5.62458 1.38909
38 1 12.4242 5.68239 4.19551
39 1 12.4641 8.37382 1.287
40 1 12.5654 8.53158 4.12057
41 1 1.4641 11.2021 1.40568
42 1 4.21621 11.3795 1.47737
43 1 4.2103 11.3354 4.2125
44 1 1.33212 11.2651 4.24591
45 1 1.41928 13.9293 1.51776
46 1 4.22707 14.274 1.35358
47 1 4.34541 14.0322 4.26461
48 1 1.51988 14.066 4.27889
49 1 7.12214 11.3656 1.3593
50 1 9.96302 11.2846 1.23061
51 1 9.75635 11.2878 4.05876
52 1 7.02686 11.213 4.19596
53 1 7.05523 14.2195 1.43641
54 1 9.94309 14.0851 1.37103
55 1 9.90878 14.1843 4.28344
56 1 7.03528 14.0471 4.14974
57 1 12.8856 11.2014 1.33007
58 1 12.6023 11.3216 4.19656
59 1 12.7187 14.1466 1.47426
60 1 12.758 14.0405 4.2918
61 1 1.2717 16.8389 1.48012
62 1 4.11151 17.0269 1.45275
63 1 4.23915 16.8881 4.31948
64 1 1.4381 16.9436 4.22406
65 1 1.42387 19.7151 1.4378
66 1 4.373 19.6785 1.44548
67 1 4.10797 19.6766 4.25666
68 1 1.35082 19.6894 4.41564
69 1 7.02083 16.9312 1.39652
70 1 9.89487 16.8908 1.52966
71 1 9.85915 16.9086 4.1772
72 1 7.09896 16.9903 4.26088
73 1 7.05251 19.7766 1.29797
74 1 9.88665 19.7933 1.2755
75 1 9.67273 19.94 4.10224
76 1 6.84387 19.7617 4.15218
77 1 12.7682 17.0636 1.44365
78 1 12.5622 16.9144 4.26675
79 1 12.7515 19.8016 1.26019
80 1 12.5023 19.6889 4.14529
81 1 1.43308 22.4991 1.40714
82 1 4.15484 22.3813 1.30631
83 1 4.02543 22.5628 4.13915
84 1 1.25617 22.6817 4.27216
85 1 6.97769 22.7204 1.35646
86 1 9.76311 22.6948 1.23979
87 1 9.80214 22.6514 4.15153
88 1 6.95164 22.4615 4.17036
89 1 12.5993 22.6476 1.582
90 1 12.6965 22.5162 4.26906
91 1 1.44044 0.0847891 7.00941
92 1 4.09003 0.0644935 6.89837
93 1 4.09939 0.100597 9.70155
94 1 1.44157 0.00893177 9.85481
95 1 1.33472 2.84198 7.06864
96 1 4.36548 2.85867 7.05805
97 1 4.10198 2.8891 9.7608
98 1 1.35383 3.0498 9.93034
99 1 7.01898 0.0413671 6.95882
100 1 9.822 0.299102 6.80414
101 1 9.76028 0.0385609 9.59373
102 1 6.86566 0.121039 9.82797
103 1 7.13437 2.94972 6.756
104 1 9.80658 2.91282 6.95583
105 1 9.78954 2.79623 9.73136
106 1 6.98862 2.97819 9.49743
107 1 12.7067 0.0724357 6.89303
108 1 12.5447 0.0405605 9.76704
109 1 12.6165 2.81063 6.76132
110 1 12.5237 2.85694 9.76328
111 1 1.46742 5.58202 6.93802
112 1 4.19452 5.68889 6.92985
113 1 4.12935 5.7585 9.68649
114 1 1.28282 5.6081 9.69505
115 1 1.43071 8.39001 7.17121
116 1 4.21509 8.49192 7.12207
117 1 4.42926 8.39592 9.99632
118 1 1.53597 8.47637 9.86603
119 1 6.93697 5.73387 6.88303
120 1 9.79242 5.71761 6.97697
121 1 9.8922 5.69174 9.80954
122 1 7.02101 5.69338 9.80178
123 1 6.96479 8.57732 6.98087
124 1 9.93725 8.63063 6.88421
125 1 9.84361 8.50641 9.72648
126 1 7.13656 8.64421 9.78687
127 1 12.5504 5.57735 7.00849
128 1 12.6857 5.58636 9.74933
129 1 12.6236 8.43717 6.82455
130 1 12.6762 8.46912 9.67976
131 1 1.44122 11.2863 7.09687
132 1 4.34668 11.3211 6.88135
133 1 4.31975 11.1757 9.92224
134 1 1.35106 11.2804 9.81336
135 1 1.49791 14.0786 6.93385
136 1 4.13793 14.0904 7.27417
137 1 4.30507 13.8955 9.92981
138 1 1.41337 14.2068 9.99818
139 1 7.13814 11.3812 7.02345
140 1 10.0047 11.4049 7.0858
141 1 9.94708 11.2709 9.83824
142 1 7.19617 11.4504 9.67657
143 1 6.96805 14.1626 7.00939
144 1 9.67658 14.2231 7.08605
145 1 9.91783 14.0826 9.76632
146 1 7.04501 14.1949 9.8331
147 1 12.6082 11.2922 7.05526
148 1 12.7489 11.3276 9.84479
149 1 12.5719 14.1019 7.03338
150 1 12.5785 14.212 9.8209
151 1 1.33529 16.9534 6.98083
152 1 4.10634 16.8294 6.96022
153 1 4.18527 16.764 9.83724
154 1 1.43995 17.021 9.8908
155 1 1.39259 19.7652 7.13055
156 1 4.1407 19.6471 7.01503
157 1 4.25022 19.7709 9.8266
158 1 1.462 19.7919 9.88409
159 1 6.82518 16.8546 6.96094
160 1 9.9229 17.2112 7.08785
161 1 9.85065 16.8411 9.85577
162 1 6.92402 16.9419 9.74116
163 1 6.97518 19.6814 6.85353
164 1 9.72991 19.8295 6.94392
165 1 9.89617 19.8201 9.79838
166 1 7.00412 19.6909 9.75664
167 1 12.5246 16.8549 6.96812
168 1 12.7728 17.0426 9.71559
169 1 12.5428 19.8029 7.11885
170 1 12.7023 19.7742 9.96421
171 1 1.4325 22.4849 7.11783
172 1 4.17707 22.4688 7.01623
173 1 4.23903 22.5656 9.94782
174 1 1.39387 22.7509 9.78653
175 1 6.85594 22.5731 6.95578
176 1 9.66448 22.5771 7.08607
177 1 9.7327 22.456 9.87724
178 1 6.91439 22.3776 9.85264
179 1 12.5179 22.5977 6.93839
180 1 12.5482 22.4669 9.83482
181 1 1.37064 0.100544 12.7817
182 1 4.14396 0.142797 12.5664
183 1 1.3281 2.89967 12.7654
184 1 4.1446 3.02336 12.4348
185 1 6.90904 0.218199 12.6901
186 1 9.82596 -0.0129566 12.3816
187 1 6.95722 2.88409 12.3727
188 1 9.74464 2.93089 12.4557
189 1 12.3968 0.0670999 12.6213
190 1 12.5337 2.8736 12.688
191 1 1.34772 5.64533 12.6209
192 1 4.25303 5.76263 12.4936
193 1 1.51307 8.4543 12.5446
194 1 4.28017 8.44472 12.8261
195 1 7.17485 5.62917 12.6146
196 1 9.75223 5.818 12.6594
197 1 7.06125 8.2797 12.5808
198 1 9.90077 8.80539 12.5702
199 1 12.3404 5.80604 12.5592
200 1 12.7086 8.43768 12.7665
201 1 1.31581 11.1646 12.5933
202 1 4.38983 11.2697 12.6201
203 1 1.52735 14.1747 12.6217
204 1 4.30579 14.0224 12.8209
205 1 7.1604 11.284 12.5192
206 1 9.9388 11.4735 12.7321
207 1 7.08784 14.1577 12.7154
208 1 9.92222 14.2774 12.5657
209 1 12.6941 11.3119 12.6211
210 1 12.8431 14.2377 12.6937
211 1 1.40411 16.8153 12.5514
212 1 4.19035 17.0187 12.6668
213 1 1.23781 19.7337 12.5983
214 1 4.10102 19.8886 12.7459
215 1 6.96729 17.0173 12.4761
216 1 9.79734 17.0203 12.6185
217 1 7.0396 19.7728 12.6807
218 1 9.97689 19.7316 12.6186
219 1 12.5749 16.9503 12.6167
220 1 12.718 19.7409 12.7001
221 1 1.34175 22.6683 12.5992
222 1 4.23937 22.5282 12.6642
223 1 7.04331 22.519 12.6367
224 1 9.8663 22.5018 12.5839
225 1 12.6055 22.6886 12.5573
12064 2 -0.0140458 7.07705 8.41465
12001 2 -0.0229271 -1.2769 -0.103982
12035 2 5.68569 15.5169 -0.0577033
12071 2 -0.0981067 9.98694 5.70346
12130 2 11.178 1.45702 13.8541
12061 2 0.0661293 4.23022 5.65392
12054 2 0.0750973 1.5106 8.47893
12008 2 5.70741 1.443 2.75302
12103 2 5.62687 -1.26604 11.2885
12010 2 11.2416 1.45541 2.66869
12125 2 11.1306 21.088 11.2737
12004 2 -0.144965 1.39108 2.67287
12013 2 2.6709 4.26161 2.8973
12124 2 8.34324 23.8318 11.3112
12024 2 -0.0302999 12.6247 2.95087
12003 2 2.78292 -1.35817 2.74611
12017 2 8.50906 4.25922 2.68109
12018 2 5.63831 7.02701 2.63099
12006 2 8.55791 1.36537 -0.0495663
12020 2 11.2695 7.17619 2.82871
12113 2 5.72306 9.942 11.2053
12104 2 8.40001 1.39918 11.053
12023 2 2.80745 9.81689 2.89833
12121 2 -0.0475849 21.1664 11.1993
12021 2 0.132806 9.72812 0.0847767
12107 2 2.76985 6.9559 11.2344
12027 2 8.42915 9.8693 2.78659
12028 2 5.72335 12.6648 2.71413
12074 2 0.119724 12.8116 8.43376
12030 2 11.2538 12.6905 2.95214
12102 2 2.79449 1.50809 11.1072
12114 2 8.46527 12.7226 11.2067
12033 2 2.78217 15.4721 2.8421
12111 2 -0.0120495 9.72185 11.2391
12100 2 11.1258 23.9127 8.50944
12099 2 11.2439 21.1393 5.62707
12037 2 8.46828 15.5262 2.87534
12038 2 5.67051 18.2121 2.838
12098 2 5.64385 23.8601 8.43978
12040 2 11.2746 18.4142 2.63131
12097 2 8.34464 21.0778 8.3006
12014 2 -0.121628 6.99438 2.84992
12043 2 2.69176 21.066 2.87937
12123 2 5.64115 21.0592 11.2545
12096 2 8.3418 23.8931 5.57349
12095 2 5.51413 21.0579 5.53721
12047 2 8.35582 21.1821 2.69625
12048 2 5.4419 23.9041 2.8086
12115 2 11.3167 9.84056 11.0854
12050 2 11.1972 24.0272 2.80649
12041 2 -0.0307087 21.1643 0.0573692
12052 2 2.81546 1.38927 5.4432
12112 2 2.88512 12.6432 11.3357
12122 2 2.7914 23.9344 11.298
12110 2 11.1679 4.33312 11.2233
12056 2 8.35296 1.47559 5.40046
12109 2 8.38256 7.0945 11.1655
12058 2 5.55679 1.40862 8.23144
12108 2 5.64476 4.30631 11.0205
12060 2 11.2208 1.4443 8.27462
12120 2 11.3434 15.5202 11.0767
12062 2 2.7389 7.1881 5.62221
12063 2 2.84215 4.25954 8.41547
12119 2 8.3586 18.3536 11.2392
12065 2 5.59719 4.37804 5.53294
12066 2 8.42952 7.11528 5.54109
12067 2 8.46888 4.35548 8.30066
12068 2 5.60918 6.99322 8.4327
12069 2 11.2295 4.13721 5.57111
12070 2 11.2226 7.09352 8.27072
12044 2 0.0170794 24.0718 2.8981
12072 2 2.8538 12.5792 5.60185
12073 2 2.90245 9.86966 8.55658
12118 2 5.61919 15.4489 11.3399
12075 2 5.66665 9.82011 5.61706
12076 2 8.36209 12.7008 5.60846
12077 2 8.5205 9.99787 8.39646
12078 2 5.64637 12.73 8.37119
12079 2 11.208 9.80482 5.50293
12080 2 11.1745 12.8152 8.39342
12046 2 8.26499 24.0111 -0.155652
12082 2 2.77942 18.3058 5.6624
12083 2 2.75292 15.4757 8.55944
12117 2 2.76979 18.3089 11.2763
12085 2 5.58464 15.4956 5.61303
12086 2 8.37021 18.4177 5.55474
12087 2 8.30535 15.6095 8.29147
12088 2 5.51555 18.2401 8.34134
12089 2 11.3087 15.5125 5.60229
12090 2 11.2522 18.393 8.39987
12084 2 0.0507767 18.3925 8.54595
12092 2 2.81986 23.9232 5.56628
12093 2 2.86057 21.068 8.43437
12091 2 -0.109173 21.1932 5.69638
12094 2 -0.0197411 23.9556 8.35878
12034 2 -0.0626189 18.3613 2.88934
12036 2 8.48924 18.3011 0.00587315
12042 2 2.6966 23.8016 -0.0596312
12032 2 2.84914 18.3103 -0.0178535
12116 2 -0.0357969 15.4955 11.266
12081 2 0.0247426 15.5791 5.62104
12025 2 5.63582 9.82005 -0.0634656
12012 2 2.88037 6.94676 -0.00641974
12011 2 -0.0369833 4.19311 -0.00186948
12129 2 5.59969 1.53557 13.7955
12015 2 5.69693 4.16404 0.101479
12133 2 8.41671 4.27014 13.9233
12131 2 2.8201 4.32267 13.9438
12128 2 8.44876 -1.27287 13.9184
12045 2 5.53083 21.0648 -0.0395425
12136 2 2.82817 9.81365 13.9816
12039 2 11.35 15.518 0.143921
12022 2 2.6806 12.7583 0.111562
12031 2 -0.116859 15.5969 0.0369852
12135 2 11.1645 7.23764 13.949
226 1 4.06619 0.0182432 15.3551
227 1 1.27602 0.088102 15.4204
228 1 4.30566 2.97853 15.27
229 1 1.31929 3.00365 15.4786
230 1 9.87185 0.17241 15.3564
231 1 7.03639 0.10857 15.3494
232 1 9.85506 2.93832 15.2127
233 1 7.02159 2.82177 15.2422
234 1 12.6298 -0.112186 15.3199
235 1 12.522 2.76439 15.4355
236 1 4.3343 5.74289 15.4517
237 1 1.36748 5.74099 15.4405
238 1 4.08588 8.51533 15.4722
239 1 1.32538 8.43641 15.476
240 1 9.9724 5.71727 15.3252
241 1 7.12743 5.61071 15.3841
242 1 9.80685 8.51781 15.4392
243 1 7.0099 8.54628 15.3092
244 1 12.7014 5.68809 15.3267
245 1 12.6616 8.46756 15.467
246 1 4.22 11.3192 15.4178
247 1 1.54042 11.2708 15.3641
248 1 4.24883 14.1226 15.4494
249 1 1.53243 14.1194 15.3931
250 1 9.88574 11.2733 15.5185
251 1 6.96006 11.4952 15.4093
252 1 10.0623 14.0143 15.5196
253 1 7.1656 14.1071 15.4565
254 1 12.842 11.2368 15.3936
255 1 12.7898 14.1067 15.3993
256 1 4.29113 16.9783 15.475
257 1 1.58574 16.8628 15.3997
258 1 4.25051 19.8839 15.486
259 1 1.42742 19.8113 15.4838
260 1 9.84882 16.7956 15.4288
261 1 7.20253 17.0702 15.3167
262 1 9.87061 19.7367 15.3639
263 1 6.88253 19.6688 15.5382
264 1 12.7391 16.8816 15.4711
265 1 12.6572 19.5466 15.501
266 1 4.28957 22.5545 15.6063
267 1 1.30995 22.4946 15.3915
268 1 9.74752 22.4572 15.304
269 1 6.90545 22.4545 15.4397
270 1 12.7355 22.4549 15.3086
271 1 1.43812 0.0377571 18.2047
272 1 4.24337 0.013717 18.3107
273 1 4.28874 0.320982 21.1814
274 1 1.4548 0.0457482 21.0605
275 1 1.25044 2.94351 18.1776
276 1 4.12435 2.7824 18.1008
277 1 4.21138 3.21427 21.0179
278 1 1.44333 2.98579 20.9593
279 1 6.94746 0.206986 18.0763
280 1 9.84039 0.15175 18.1766
281 1 9.97001 0.037661 20.9518
282 1 7.0909 -0.107835 21.0381
283 1 7.09289 2.81562 18.0485
284 1 9.92748 2.90167 18.0349
285 1 9.81565 2.81915 20.9216
286 1 6.95055 2.77329 20.9323
287 1 12.6647 0.0874098 18.2153
288 1 12.6715 0.181738 21.0624
289 1 12.7737 2.90506 18.2432
290 1 12.4887 2.9453 21.0334
291 1 1.36863 5.80615 18.2586
292 1 4.19724 5.61875 18.2371
293 1 4.30585 8.09437 21.0802
294 1 1.79245 5.84737 21.0288
295 1 1.36772 8.6249 18.1601
296 1 4.29844 8.45353 18.2347
297 2 5.53691 9.9305 22.3741
298 1 1.37345 8.52505 20.9935
299 1 7.0451 5.76262 18.2536
300 1 9.78294 5.52969 18.086
301 1 9.78196 5.48906 21.0145
302 1 6.67992 5.74579 20.9695
303 1 7.02137 8.41497 18.1299
304 1 9.87143 8.47754 18.3318
305 1 9.78821 8.45416 21.0896
306 1 6.96143 8.35204 21.0608
307 1 12.5786 5.51335 18.1212
308 1 12.5242 5.76344 21.1579
309 1 12.5226 8.36764 18.2969
310 1 12.5729 8.34945 20.9901
311 1 1.36296 11.327 18.365
312 1 4.15006 11.0935 18.1874
313 1 4.04725 11.0437 21.045
314 1 1.28858 11.3658 21.1095
315 1 1.5525 14.031 18.1386
316 1 4.35441 14.0928 18.3249
317 1 4.06032 14.1629 21.0342
318 1 1.454 14.1526 21.0443
319 1 7.0995 11.2873 18.2284
320 1 9.80789 11.2299 18.3156
321 1 9.75038 11.275 20.9888
322 1 6.99926 11.2042 21.0901
323 1 7.13596 14.0544 18.251
324 1 9.91104 14.1406 18.3369
325 1 9.77613 14.0318 21.1071
326 1 7.00734 14.1315 21.0631
327 1 12.6198 11.1844 18.3366
328 1 12.6157 11.222 21.1062
329 1 12.7869 13.9491 18.1215
330 1 12.6547 13.9937 21.0258
331 1 1.48169 17.0232 18.2302
332 1 4.34821 16.895 18.3153
333 1 4.22729 16.8257 21.0802
334 1 1.363 16.9756 20.9312
335 1 1.42071 19.7799 18.276
336 1 4.24792 19.6583 18.3595
337 1 4.14908 19.7389 21.1201
338 1 1.38746 19.724 21.165
339 1 7.13831 16.9176 18.1712
340 1 9.84784 16.9264 18.1975
341 1 9.78735 16.8582 20.9365
342 1 6.92403 16.9991 21.0577
343 1 7.15578 19.7982 18.1937
344 1 10.0783 19.6756 18.0966
345 1 9.7664 19.6641 21.0373
346 1 6.97649 19.6681 21.0939
347 1 12.6621 16.8188 18.2213
348 1 12.6887 16.8108 21.0858
349 1 12.7486 19.6855 18.3432
350 1 12.6659 19.8769 21.1717
351 1 1.42363 22.5298 18.2415
352 1 4.13151 22.4498 18.3929
353 1 4.13542 22.5091 21.0285
354 1 1.32782 22.4708 21.0219
355 1 7.07526 22.5199 18.2862
356 1 9.71268 22.393 18.1477
357 1 9.93522 22.4528 21.0043
358 1 7.0358 22.558 21.0483
359 1 12.5971 22.4016 18.1239
360 1 12.6798 22.5536 21.0044
361 1 1.33577 0.1578 23.7463
362 1 4.0859 0.191863 23.9449
363 1 4.29805 0.000603795 26.7629
364 1 1.41846 0.0408588 26.6112
365 1 1.45593 3.04205 23.8852
366 1 4.22132 2.85334 23.827
367 1 4.35901 2.89465 26.6746
368 1 1.57258 2.77595 26.6181
369 1 6.96748 -0.0340901 23.8262
370 1 9.93595 -0.0195599 23.8387
371 1 10.0301 0.179572 26.6379
372 1 7.12807 0.0160609 26.6351
373 1 7.07065 2.64693 23.8236
374 1 9.80317 3.10352 23.7333
375 1 10.0315 2.97668 26.4531
376 1 7.23059 2.82103 26.6331
377 1 12.7065 0.0392192 23.7791
378 1 12.7692 -0.0169308 26.486
379 1 12.7412 2.73406 23.8801
380 1 12.7162 2.86968 26.5729
381 1 1.49562 5.77532 23.8451
382 1 4.31248 5.73248 23.5318
383 1 4.31617 5.60531 26.4937
384 1 1.31262 5.55682 26.6819
385 1 1.24182 8.52605 23.9094
386 1 4.15526 8.64264 23.7511
387 1 4.00206 8.39436 26.5074
388 1 1.31232 8.3461 26.7461
389 1 7.05838 5.65906 23.8043
390 1 9.75326 5.75348 23.8426
391 1 9.91797 5.794 26.6644
392 1 6.9777 5.67077 26.6625
393 1 7.04158 8.53033 23.7252
394 1 9.93384 8.52267 23.8467
395 1 9.72768 8.61356 26.6533
396 1 6.83101 8.44918 26.5233
397 1 12.5689 5.65481 23.8775
398 1 12.6585 5.67057 26.6076
399 1 12.6407 8.43386 23.8159
400 1 12.6181 8.53488 26.5861
401 1 1.43195 11.3754 23.9269
402 1 4.22216 11.3628 23.8172
403 1 4.15306 11.2649 26.7166
404 1 1.38899 11.2484 26.8293
405 1 1.2614 14.3217 23.8547
406 1 4.07312 14.2165 23.7307
407 1 4.25577 14.1582 26.6262
408 1 1.40613 14.1636 26.6659
409 1 7.05806 11.2288 23.9893
410 1 9.76374 11.4012 23.8341
411 1 9.73118 11.3901 26.6444
412 1 6.89772 11.4678 26.7236
413 1 6.92636 13.9696 23.9174
414 1 9.78055 14.1953 23.7065
415 1 9.94 14.1912 26.4752
416 1 6.95809 14.1294 26.7363
417 1 12.6637 11.3113 23.7934
418 1 12.7297 11.3238 26.6589
419 1 12.6695 14.2176 23.8282
420 1 12.5804 14.0669 26.7951
421 1 1.26267 16.993 23.7744
422 1 4.12431 17.1052 23.8587
423 1 4.25751 16.9769 26.5991
424 1 1.58038 16.936 26.681
425 1 1.52877 19.7287 23.9231
426 1 4.26943 19.8332 23.7963
427 1 4.23573 19.7483 26.6894
428 1 1.54844 19.5531 26.7025
429 1 6.92034 16.897 23.8674
430 1 9.89606 19.7946 23.7925
431 1 10.0165 16.9809 26.7664
432 1 7.1472 16.9108 26.6106
433 1 6.90006 19.8137 23.8088
434 1 12.7297 22.5367 23.9176
435 1 9.81583 19.8131 26.711
436 1 7.10775 19.6247 26.5351
437 1 12.7998 16.9375 23.792
438 1 12.7845 16.9926 26.6699
12216 2 8.36123 6.97621 22.4415
440 1 12.5771 19.7811 26.6719
441 1 1.44428 22.6086 23.977
442 1 4.22894 22.5782 23.8123
443 1 4.19273 22.6033 26.7413
444 1 1.33476 22.479 26.7096
445 1 6.95842 22.7057 23.9382
446 1 9.78426 22.4598 23.6891
447 1 9.8137 22.5954 26.5168
448 1 6.99805 22.4673 26.6027
12134 2 5.62053 7.02206 14.0094
450 1 12.6615 22.7133 26.8752
12211 2 0.0842685 4.22248 22.4685
12250 2 11.2534 23.964 25.1141
12209 2 11.245 -1.26312 22.3804
439 1 12.61 19.8788 24.0659
12215 2 5.80774 4.04836 22.5397
12227 2 8.31028 9.84482 25.236
12249 2 11.3053 21.1356 22.5067
12226 2 11.1657 15.5522 22.3593
12225 2 8.41029 12.6322 22.468
12164 2 0.0376628 7.10048 19.6213
12223 2 2.67707 9.89657 25.3894
12248 2 5.6338 23.8725 25.2519
12222 2 2.76651 12.6696 22.2999
12228 2 5.40398 12.7711 25.3065
12151 2 0.166809 -1.26833 16.8105
12220 2 11.1524 7.09102 25.2446
12247 2 8.38755 21.0509 25.2208
12171 2 0.0313355 9.94512 16.6975
12234 2 0.0549321 18.2844 25.2249
12194 2 0.0103446 23.921 19.6029
12219 2 11.2712 4.25133 22.4198
12246 2 8.33023 23.8406 22.301
12214 2 -0.0216212 6.90915 25.3153
12218 2 5.49403 7.04761 25.1703
12157 2 8.37011 -1.32434 19.4962
12245 2 5.50725 21.1034 22.3347
12152 2 2.89321 1.5078 16.6618
12141 2 2.82115 15.5178 14.0981
12243 2 2.8673 21.0426 25.2797
12154 2 0.0250577 1.45606 19.6369
12156 2 8.5109 1.38057 16.6266
12241 2 0.0867358 21.0155 22.4331
12158 2 5.62687 1.38 19.4563
12213 2 2.84046 4.28351 25.2888
12160 2 11.2463 1.61609 19.5466
12242 2 2.76598 23.9384 22.4012
12162 2 2.83499 7.11298 16.8433
12163 2 2.70941 4.223 19.5354
12240 2 11.3914 18.282 25.2916
12165 2 5.60758 4.24911 16.752
12166 2 8.56537 7.08903 16.7655
12167 2 8.42809 4.14061 19.5201
12168 2 5.7352 7.12266 19.5526
12169 2 11.2806 4.16585 16.679
12170 2 11.21 6.89966 19.568
12239 1 9.86781 16.9062 23.8509
12172 2 2.78341 12.5783 16.8028
12173 2 2.61089 9.88806 19.6532
12238 2 5.72408 18.2692 25.2402
12175 2 5.58954 9.79018 16.7071
12176 2 8.57217 12.6447 16.9537
12177 2 8.35903 9.78926 19.6404
12178 2 5.59081 12.7029 19.5763
12179 2 11.1879 9.81408 17.0041
12180 2 11.3463 12.6502 19.5412
12237 2 8.46104 15.5068 25.2563
12182 2 2.82133 18.4581 16.8094
12183 2 2.85537 15.5893 19.5648
12236 2 8.3116 18.3625 22.3993
12185 2 5.72263 15.3863 16.7628
12186 2 8.51946 18.3131 16.7871
12187 2 8.45038 15.4765 19.6267
12188 2 5.60358 18.2131 19.6125
12189 2 11.3155 15.3929 16.8579
12190 2 11.1915 18.3186 19.6653
12235 2 5.59756 15.5017 22.5578
12192 2 2.6646 23.967 16.8473
12193 2 2.64314 21.0978 19.6719
12212 2 2.67182 7.22506 22.5691
12195 2 5.52749 21.0955 16.9107
12196 2 8.4417 23.8958 16.7691
12197 2 8.55339 21.0284 19.6556
12198 2 5.63084 23.8787 19.4895
12199 2 11.343 20.9698 16.6639
12200 2 11.2434 23.8826 19.604
12233 2 2.77971 15.5658 25.155
12202 2 2.71581 1.49446 22.4751
12230 2 11.2157 12.6199 25.1725
12232 2 2.84431 18.3315 22.4458
12210 2 11.3248 1.4129 25.1717
12206 2 8.49739 1.31949 22.3805
12229 2 11.0789 9.88089 22.3562
12208 2 5.68861 1.41124 25.2716
12217 2 8.49078 4.32431 25.2948
12184 2 -0.00740911 18.2976 19.5687
12224 2 0.0186896 12.6478 25.2421
12145 2 11.276 18.1644 14.0765
12231 2 -0.0332518 15.6469 22.3221
12143 2 8.50625 15.496 13.9875
12137 2 0.0366731 12.6504 14.0321
12174 2 -0.0345505 12.7544 19.5982
12221 2 0.0248198 9.99714 22.4119
12204 2 0.0384277 1.51829 25.3021
12181 2 -0.020769 15.559 16.8103
12140 2 11.4613 12.7291 14.0767
12149 2 5.6672 23.9104 14.0826
12142 2 0.0581442 18.344 14.0015
12191 2 -0.0358248 21.0582 16.7625
12147 2 -0.0172871 23.9265 14.0226
12127 2 -0.00109386 1.56006 14.0031
12150 2 11.2281 23.8536 14.0542
12148 2 8.28437 21.1298 14.0872
12244 2 0.00499362 23.9232 25.3174
12146 2 2.76286 21.148 13.9775
12132 2 -0.0612857 7.01977 14.0171
12138 2 8.36788 9.9139 13.9977
12016 2 8.52022 7.02444 27.9614
12144 2 5.63068 18.4062 14.0977
12002 2 2.91386 1.41084 28.0317
12019 2 11.4666 4.21573 28.0242
12029 2 11.2611 9.83219 27.9769
12026 2 8.428 12.8502 27.9951
12139 2 5.73983 12.823 14.1139
12049 2 11.2768 21.2466 27.9767
451 1 1.38048 25.4058 1.36729
452 1 3.99638 25.1579 1.40451
453 1 4.23912 25.3173 4.2887
454 1 1.33577 25.4456 4.12431
455 1 6.96118 25.3437 1.45783
456 1 9.72321 25.4213 1.51169
457 1 9.7528 25.3955 4.3353
458 1 6.87642 25.2675 4.25319
459 1 12.6796 25.4801 1.26491
460 1 12.5822 25.3381 4.11849
461 1 1.30616 28.1918 1.44489
462 1 4.26104 28.1194 1.34381
463 1 4.11974 28.1555 4.10148
464 1 1.40034 28.1699 4.18876
465 1 1.39747 30.9651 1.53348
466 1 4.10144 30.8682 1.5547
467 1 4.20219 30.9483 4.44904
468 1 1.42178 31.1039 4.26564
469 1 6.92091 28.0638 1.60316
470 1 10.0735 28.1971 1.28473
471 1 9.73037 28.1035 4.21472
472 1 6.97533 28.2505 4.23952
473 1 6.91154 30.9614 1.49602
474 1 9.55495 30.6762 1.30787
475 1 9.81791 31.0638 4.12515
476 1 7.12734 31.2121 4.17675
477 1 12.6461 28.4418 1.28831
478 1 12.5727 28.1745 4.2169
12255 2 5.35938 26.6324 0.0987893
480 1 12.3882 31.0464 1.32123
481 1 1.40634 33.6305 1.41774
482 1 4.1799 33.7003 1.45759
483 1 4.1284 33.7914 4.23476
484 1 1.46177 36.5704 1.32249
12356 2 0.0634355 43.5424 11.2123
486 1 4.31236 36.6238 1.31774
487 1 4.1445 36.6406 4.24036
1012 1 6.84423 50.7198 9.66856
489 1 7.03738 33.7999 1.43912
490 1 9.90761 33.7662 1.4128
491 1 9.85519 33.7773 4.27806
492 1 7.01246 33.8789 4.10236
493 1 7.08822 36.6615 1.31376
494 1 9.73517 36.4926 1.34459
495 1 9.62815 36.5961 4.20151
496 1 6.84406 36.7654 4.1672
497 1 12.6974 33.7063 1.60509
498 1 12.668 33.9658 4.34709
499 1 12.7416 36.6134 1.5123
500 1 12.4936 36.8719 4.2238
501 1 1.45476 39.5441 1.27007
502 1 4.23392 39.193 1.35451
503 1 4.20579 39.4957 4.23851
504 1 1.2886 39.3876 4.10926
505 1 1.34619 42.304 1.42236
506 1 4.10492 42.0248 1.32312
507 1 4.0459 42.2238 4.04178
508 1 1.34682 42.1521 4.10006
509 1 7.06285 39.6076 1.38006
912 1 7.09839 50.3779 4.26845
511 1 9.9438 39.3305 1.28495
512 1 7.02705 39.6277 4.11858
513 1 6.95173 42.1968 1.47843
514 1 9.79585 42.1994 1.46004
515 1 9.79094 42.1376 4.15861
516 1 6.98402 42.2371 4.23183
517 1 12.6678 39.407 1.23099
518 1 12.9465 39.596 4.08786
519 1 12.5653 42.2547 1.3297
520 1 12.6441 42.2211 4.12679
521 1 1.24863 45.1212 1.34289
522 1 4.10982 44.9793 1.37475
523 1 4.16341 45.0343 4.20589
524 1 1.34112 44.8636 4.03356
525 1 1.45607 47.8787 1.29307
526 1 4.38184 47.9881 1.37764
527 1 4.19039 47.787 4.07416
528 1 1.30787 47.8635 4.06813
529 1 6.94072 44.9527 1.52302
530 1 9.79902 44.9512 1.51742
531 1 9.88061 45.019 4.25543
532 1 6.9425 44.9768 4.29625
533 1 7.07081 47.687 1.39867
534 1 9.96031 47.8129 1.42446
535 1 9.85605 47.7953 4.13847
536 1 6.99531 47.7474 4.21795
537 1 12.6922 45.116 1.31723
538 1 12.7293 44.929 4.18715
539 1 12.6671 47.87 1.25101
540 1 12.5751 47.8253 4.13018
541 1 1.38836 25.3849 7.01083
542 1 4.17461 25.3611 7.04543
543 1 4.22368 25.1681 9.76251
544 1 1.44455 25.5259 9.84828
545 1 7.05075 25.4099 6.83947
546 1 9.76604 25.3278 7.14496
547 1 9.72073 25.4545 9.96356
548 1 7.01273 25.2755 9.75777
549 1 12.6727 25.5634 6.96875
550 1 12.5073 25.3526 9.64764
551 1 1.2986 28.046 7.13307
552 1 4.177 28.2066 6.96879
553 1 4.30306 28.0178 9.66639
554 1 1.4825 28.3309 9.90143
555 1 1.50327 33.8067 4.0947
556 1 4.25684 31.1176 7.10327
557 1 4.32293 31.0102 9.90515
558 1 1.4546 30.9886 9.9026
559 1 7.06544 28.1951 7.049
560 1 9.90864 28.0523 7.00855
561 1 9.79076 28.2579 9.84781
562 1 6.96234 28.2425 9.71545
563 1 7.06567 30.9164 7.05121
564 1 9.90414 30.8317 7.06139
565 1 9.96482 30.9516 9.94687
566 1 7.16852 30.9568 9.86738
567 1 12.6702 28.068 6.96554
568 1 12.6477 28.107 9.80022
569 1 12.8238 30.9868 7.01139
570 1 12.6752 31.0407 9.84723
571 1 1.35763 33.9427 6.92768
572 1 4.22959 33.9772 7.08071
573 1 4.17605 33.7364 9.84055
574 1 1.31612 33.7256 9.74267
575 1 1.11535 36.6608 6.9787
576 1 4.06158 36.7378 7.00981
577 1 4.04332 36.5015 9.76102
578 1 1.18843 36.5966 9.96029
579 1 7.08303 33.5698 6.95714
580 1 9.81318 33.5695 6.96193
581 1 9.70614 33.7634 9.77982
582 1 6.98338 33.6614 9.79168
583 1 6.6468 36.2222 6.81176
584 1 10.0853 36.2969 6.7639
585 1 10.0941 36.4092 10.1555
586 1 6.77816 36.4357 10.0166
587 1 12.7262 33.8254 6.98852
588 1 12.5543 33.8449 9.83364
589 1 12.8055 36.766 6.8721
590 1 12.8162 36.7616 9.76538
591 1 1.32962 39.4668 7.01486
592 1 4.06031 39.5089 7.06563
593 1 4.14045 39.2841 9.93978
594 1 1.34509 39.394 9.82932
595 1 1.34738 42.2376 7.04598
596 1 4.14904 42.3372 6.96978
597 1 4.12294 42.064 9.75405
598 1 1.24737 42.1055 9.89704
599 1 6.80116 39.4667 6.85168
600 1 9.8156 39.2607 4.08301
601 1 9.97556 39.5235 9.94632
602 1 6.81331 39.6077 10.0572
603 1 6.80688 42.2767 6.94648
604 1 9.63781 42.271 7.00828
605 1 9.80252 42.2257 9.74472
606 1 7.0561 42.2885 9.77289
607 1 12.7427 39.6177 7.17214
608 1 12.7358 39.5022 9.92333
609 1 12.6812 42.3236 6.91288
610 1 12.6053 42.298 9.67509
611 1 1.32417 45.0067 6.80438
612 1 3.99993 45.0463 6.9213
613 1 4.22404 44.8917 9.82955
614 1 1.34618 45.0006 9.5885
615 1 1.16376 47.8131 6.91285
616 1 3.99277 47.9173 6.94673
617 1 4.17439 47.907 9.72116
618 1 1.45936 47.9589 9.83638
619 1 6.88808 45.0296 7.10505
620 1 9.73011 45.1237 7.08183
621 1 9.77886 45.1241 9.76283
622 1 6.98592 45.014 9.73918
623 1 6.72618 47.7809 6.98356
624 1 9.6605 47.981 6.93231
625 1 9.77001 48.0375 9.8086
626 1 7.07714 47.8367 9.73068
627 1 12.3615 45.1015 6.86842
628 1 12.5203 45.1048 9.88723
629 1 12.6867 48.0004 7.02583
630 1 12.6136 47.8557 9.77266
631 1 1.48064 25.3054 12.7551
632 1 4.30443 25.4308 12.5688
633 1 7.04417 25.4495 12.563
634 1 9.8437 25.3147 12.62
635 1 12.7124 25.4772 12.4352
636 1 1.46011 28.0065 12.6585
637 1 4.2176 28.1237 12.5507
638 1 1.43125 30.905 12.5972
639 1 4.25559 30.9407 12.6593
640 1 7.24204 28.2366 12.592
641 1 9.90841 28.075 12.5543
642 1 7.11234 31.0357 12.6451
643 1 9.78426 30.879 12.7939
644 1 12.7657 28.25 12.6125
645 1 12.6679 31.0073 12.7342
646 1 1.42413 33.6447 12.4991
647 1 4.13452 33.7822 12.6171
648 1 1.24793 36.5352 12.8763
649 1 4.12734 36.6318 12.5443
650 1 7.02461 33.7328 12.7184
651 1 9.7773 33.7085 12.4592
652 1 6.93483 36.6709 12.7212
653 1 9.64209 36.4982 12.8081
654 1 12.5345 33.7585 12.7131
655 1 12.5901 36.5605 12.5688
656 1 1.29874 39.282 12.5922
657 1 4.13184 39.3654 12.6748
658 1 1.4686 42.2286 12.7294
659 1 4.28072 42.267 12.5009
660 1 7.10111 39.5008 12.88
661 1 9.82502 39.1112 12.6881
662 1 7.09116 42.2862 12.5879
663 1 9.83792 41.9973 12.6354
664 1 12.6483 39.3363 12.8546
665 1 12.6922 42.2332 12.5992
666 1 1.458 45.027 12.5386
667 1 4.19901 45.0865 12.5594
668 1 1.29358 47.8257 12.6975
669 1 4.23493 47.6837 12.5663
670 1 7.12918 45.0948 12.7567
671 1 9.7357 44.8895 12.6028
672 1 6.96754 47.8568 12.4807
673 1 9.95472 47.8899 12.687
674 1 12.5885 45.0805 12.726
675 1 12.7789 47.9815 12.6141
12363 2 11.1677 49.2559 11.2108
12281 2 -0.0814335 43.6133 0.0702114
12253 2 2.66002 26.7966 2.80627
12362 2 5.60519 49.1584 11.2463
12351 2 -0.121591 37.9039 11.1901
488 1 1.3179 36.5488 4.04704
12257 2 8.32698 26.6327 2.93828
12258 2 5.59615 29.6256 2.97119
12329 2 -0.00192103 46.2464 8.36321
12260 2 11.1235 29.5094 2.96916
12346 2 -0.0425016 32.3246 11.2518
12349 2 8.43655 35.3109 11.0675
12263 2 2.75139 32.4197 2.84721
12360 2 11.1897 43.5144 11.2721
12348 2 5.66267 32.4337 11.2873
12347 2 2.66924 35.2124 11.3172
12267 2 8.41238 32.4907 2.88044
12268 2 5.57021 35.279 2.7916
12252 2 2.86454 29.5109 0.0302959
12270 2 11.1766 35.2677 2.80794
12359 2 8.41817 46.413 11.1653
12345 2 11.295 26.8499 11.1859
12273 2 2.70129 37.9875 2.76867
12358 2 5.66233 43.5937 11.1528
12344 2 8.49342 29.6224 11.2021
12343 2 5.55557 26.7647 11.1417
12277 2 8.39052 38.0254 2.83902
12278 2 5.5519 40.8234 2.73266
12295 2 11.15 49.1588 0.0111719
12280 2 11.267 40.7195 2.77542
12342 2 2.84034 29.6319 11.1899
1004 1 1.37564 50.8175 9.88978
12283 2 2.71917 43.6498 2.7534
12350 2 11.1725 32.3589 11.2835
12316 2 -0.038274 37.8478 5.5829
6571 1 12.6311 30.9675 4.31467
12287 2 8.34373 43.5558 2.79751
12288 2 5.55488 46.3534 2.82971
12293 2 5.71834 49.215 0.0371959
12290 2 11.3096 46.32 2.72072
12340 2 11.2898 49.2204 5.63352
12292 2 2.65757 49.2036 2.65846
12352 2 2.83649 40.6825 11.1891
12294 2 8.53785 49.0787 2.87356
12254 2 -0.0170313 29.6336 2.92712
12357 2 2.86956 46.4585 11.1801
12297 2 2.73025 29.5334 5.76489
12298 2 2.80331 26.6926 8.44749
12299 1 1.46115 30.9656 6.99091
12300 2 5.51403 26.7763 5.64269
12301 2 8.29353 29.609 5.57384
12302 2 8.28783 26.6902 8.48333
12303 2 5.565 29.7206 8.36145
12304 2 11.1637 26.6129 5.77282
12305 2 11.2658 29.4333 8.44224
12266 2 8.34751 35.2086 0.0174909
12307 2 2.77536 35.2503 5.5916
12308 2 2.85658 32.3411 8.4924
12355 2 11.2073 38.0355 11.1933
12310 2 5.51909 32.541 5.62984
12311 2 8.4541 35.1786 5.71352
12312 2 8.40737 32.3113 8.32204
12313 2 5.59458 35.1429 8.57072
12314 2 11.1674 32.3727 5.67607
12315 2 11.1145 35.1587 8.42003
12354 2 8.39313 40.7431 11.1103
12317 2 2.68838 40.7788 5.56415
12318 2 2.71721 37.9553 8.35951
12286 2 8.48378 46.3511 0.0144717
12320 2 5.57391 37.9511 5.65974