ITEM: TIMESTEP
400000
ITEM: NUMBER OF ATOMS
18000
ITEM: BOX BOUNDS xy xz yz pp pp pp
-1.1342518233416690e-01 2.8007425182334021e+01 0.0000000000000000e+00
-1.2546205183528389e+00 3.3598262051835803e+02 0.0000000000000000e+00
-1.0615369278202456e-01 2.8000153692782963e+01 0.0000000000000000e+00
ITEM: ATOMS id type x y z
1 1 1.14612 0.138694 1.20637
2 1 4.03016 0.0697803 1.20803
3 1 4.05265 0.209587 4.00468
4 1 1.30987 0.108691 4.04269
5 1 1.31536 2.89871 1.3366
6 1 3.9988 3.00597 1.3936
7 1 4.1757 3.07758 4.31977
8 1 1.38264 3.04077 4.10263
9 1 6.80715 0.0214111 1.36106
10 1 9.79216 0.248736 1.34015
11 1 9.72695 0.164761 4.21696
12 1 6.81438 0.387463 4.22115
13 1 6.96203 2.79217 1.34333
14 1 9.70006 2.97711 1.3538
15 1 9.91205 2.94632 4.15131
16 1 6.95593 3.05108 4.161
17 1 12.5516 0.217733 1.24047
18 1 12.6164 0.0936197 4.16445
19 1 12.4694 2.95012 1.26958
20 1 12.7801 3.02156 4.14582
21 1 1.35735 5.86258 1.41067
22 1 4.06573 5.87131 1.36509
23 1 4.16936 5.73156 4.15105
24 1 1.14397 5.75877 4.18836
25 1 1.22682 8.5547 1.28601
26 1 3.96801 8.64119 1.18933
27 1 4.09071 8.64111 3.90929
28 1 1.35998 8.68658 4.1383
29 1 6.9285 5.65783 1.22902
30 1 9.67255 5.72494 1.20879
31 1 9.77786 5.7872 4.08006
32 1 7.0463 5.80202 4.14445
33 1 6.84647 8.49309 1.3351
34 1 9.53673 8.47457 1.24773
35 1 9.73475 8.55698 4.04759
36 1 6.82072 8.6819 4.13892
37 1 12.2656 5.77611 1.38698
38 1 12.5927 5.7768 4.05222
39 1 12.3632 8.57817 1.35834
40 1 12.6172 8.55031 4.11131
41 1 1.14756 11.3175 1.34774
42 1 3.85807 11.3882 1.49243
43 1 4.18154 11.3522 4.33751
44 1 1.4072 11.4715 4.23491
45 1 1.37652 14.2901 1.50445
46 1 4.17405 14.2015 1.38972
47 1 3.98941 14.1671 4.25719
48 1 1.3054 14.1859 4.23659
49 1 6.87119 11.4256 1.42825
50 1 9.72474 11.2435 1.32676
51 1 9.64976 11.4251 4.23123
52 1 6.84563 11.3959 4.15555
53 1 6.97735 14.2033 1.42914
54 1 9.7681 14.178 1.27661
55 1 9.5957 14.2074 4.23505
56 1 6.98308 14.3348 4.14371
57 1 12.4608 11.4141 1.41564
58 1 12.4407 11.3736 4.25697
59 1 12.7422 14.2905 1.36433
60 1 12.363 14.1996 4.21974
61 1 1.30125 17.0532 1.39688
62 1 4.17417 17.026 1.39668
63 1 4.19352 17.0153 4.13037
64 1 1.29124 17.0617 4.12305
65 1 1.44132 19.8256 1.30104
66 1 4.29152 19.8535 1.38766
67 1 4.18661 19.7636 4.11414
68 1 1.29032 19.9065 4.2022
69 1 7.09194 16.9245 1.31324
70 1 9.94687 16.9074 1.31068
71 1 9.74703 16.9023 4.04182
72 1 7.04233 17.0064 4.18108
73 1 7.11822 19.83 1.11514
74 1 9.8602 19.7773 1.40981
75 1 9.80577 19.7494 4.15219
76 1 6.9655 19.8753 4.12075
77 1 12.7288 17.0522 1.19435
78 1 12.5304 16.8993 4.08308
79 1 12.6226 19.8425 1.21204
80 1 12.3658 19.7851 3.97867
81 1 1.32732 22.7194 1.32677
82 1 4.22797 22.5051 1.34326
83 1 4.0488 22.5131 4.16962
84 1 1.18348 22.5067 4.16588
85 1 6.92484 22.4981 1.27669
86 1 9.66765 22.558 1.55209
87 1 9.52799 22.6357 4.18549
88 1 6.90044 22.5048 4.12917
89 1 12.5204 22.6722 1.159
90 1 12.3248 22.6349 4.07882
91 1 1.36234 0.171082 6.9598
92 1 4.07419 0.25474 6.96216
93 1 4.12558 0.339838 9.74614
94 1 1.40394 0.0145151 9.86146
95 1 1.32969 3.00399 6.91714
96 1 4.16883 2.98118 6.99479
97 1 4.13818 2.94297 9.78935
98 1 1.34011 2.95424 9.55319
99 1 6.93692 0.342311 6.90426
100 1 9.65972 0.432488 6.9905
101 1 9.63292 0.144021 9.83263
102 1 6.87773 0.0834025 9.69729
103 1 7.02064 2.98994 7.00759
104 1 9.76541 3.13474 6.94105
105 1 9.71896 2.97579 9.82033
106 1 6.86076 2.93574 9.92399
107 1 12.5566 0.259319 6.95105
108 1 12.3456 0.176384 9.69362
109 1 12.5073 2.96803 6.82716
110 1 12.6465 3.14602 9.66205
111 1 1.32293 5.80741 6.99581
112 1 4.18464 5.76101 6.89081
113 1 4.10442 5.73324 9.92788
114 1 1.31458 5.7181 9.68293
115 1 1.42755 8.68011 6.9479
116 1 4.1881 8.39133 6.8268
117 1 4.19659 8.54078 9.78098
118 1 1.27782 8.59155 9.78109
119 1 7.07142 5.78843 6.95452
120 1 9.83318 5.91208 7.03255
121 1 9.80773 5.66309 9.81299
122 1 6.87242 5.6678 9.81805
123 1 6.96754 8.60657 6.968
124 1 9.75696 8.53133 6.98906
125 1 9.47727 8.53833 9.97431
126 1 6.95756 8.35421 9.6746
127 1 12.6361 5.86813 6.89171
128 1 12.4051 5.83612 9.79324
129 1 12.6044 8.51384 7.03653
130 1 12.4086 8.54918 9.76111
131 1 1.23688 11.4804 6.88431
132 1 3.96416 11.2292 7.15302
133 1 4.17814 11.4279 9.71635
134 1 1.31697 11.3672 9.84345
135 1 1.19578 14.3381 7.0484
136 1 4.06533 14.0409 7.1514
137 1 4.22591 14.2727 9.98086
138 1 1.36238 14.0671 9.85459
139 1 6.85076 11.4218 7.02874
140 1 9.70821 11.3618 7.03655
141 1 9.85795 11.3886 9.76967
142 1 7.02839 11.2859 9.80489
143 1 6.81491 14.2805 6.83999
144 1 9.8062 14.2481 7.02889
145 1 9.75527 14.1768 9.77738
146 1 7.09073 14.037 9.563
147 1 12.473 11.4334 6.88181
148 1 12.5781 11.3637 9.75682
149 1 12.559 14.2617 7.06444
150 1 12.4748 14.1445 9.72472
151 1 1.31851 17.0377 6.95739
152 1 4.07555 16.8973 6.9149
153 1 4.07313 16.9575 9.91176
154 1 1.26579 16.8754 9.86724
155 1 1.25555 19.7999 6.8733
156 1 4.19074 19.7908 6.88662
157 1 4.17633 19.9075 9.5482
158 1 1.41405 19.6757 9.83934
159 1 6.83696 16.9984 6.99203
160 1 9.76122 17.0117 6.87228
161 1 9.7263 17.0247 9.73647
162 1 6.95819 16.9086 9.70897
163 1 7.00554 19.7673 6.87858
164 1 9.68771 19.7874 6.95987
165 1 9.70952 19.7997 9.73159
166 1 6.91752 19.716 9.71162
167 1 12.4803 16.9303 6.86989
168 1 12.5607 16.9795 9.68781
169 1 12.472 19.7019 6.83956
170 1 12.5099 19.7291 9.72648
171 1 1.3469 22.6863 6.98831
172 1 4.096 22.5381 6.93804
173 1 4.04359 22.6571 9.86392
174 1 1.17095 22.5738 9.70981
175 1 6.76694 22.5876 6.88773
176 1 9.71579 22.745 6.96846
177 1 9.69145 22.5858 9.74887
178 1 6.74549 22.4775 9.70147
179 1 12.4474 22.5739 7.07865
180 1 12.4572 22.4918 9.8527
181 1 1.32377 0.031151 12.6369
182 1 3.99224 0.0413581 12.5344
183 1 1.25418 2.87043 12.3672
184 1 4.07078 2.87714 12.5788
185 1 6.78296 0.1916 12.5746
186 1 9.62544 0.289874 12.6237
187 1 6.81726 2.98568 12.8145
188 1 9.72161 3.0041 12.5972
189 1 12.3935 0.266558 12.5141
190 1 12.5996 3.03512 12.6452
191 1 1.26314 5.70558 12.5329
192 1 3.99343 5.76461 12.5773
193 1 1.34908 8.44452 12.561
194 1 4.16894 8.51204 12.5996
195 1 6.71604 5.87364 12.6003
196 1 9.57723 5.68949 12.6582
197 1 7.06066 8.65653 12.5391
198 1 9.81715 8.59072 12.6856
199 1 12.5447 5.71272 12.5676
200 1 12.5163 8.44453 12.5853
201 1 1.39925 11.2766 12.6188
202 1 4.21622 11.2835 12.5346
203 1 1.35498 14.0852 12.7379
204 1 4.20814 14.2861 12.7043
205 1 6.96176 11.479 12.5035
206 1 9.78772 11.3788 12.6802
207 1 7.06732 14.2579 12.5765
208 1 9.88898 14.2097 12.6844
209 1 12.6508 11.2423 12.4868
210 1 12.5405 14.1733 12.5907
211 1 1.40509 16.8816 12.6256
212 1 4.15186 17.0252 12.6838
213 1 1.14639 19.7122 12.5002
214 1 4.21902 19.8208 12.5792
215 1 7.02955 16.9832 12.6535
216 1 9.92074 17.136 12.582
217 1 6.93569 19.6323 12.5262
218 1 9.75956 19.8385 12.6329
219 1 12.6945 17.0007 12.5617
220 1 12.4889 19.8907 12.6281
221 1 1.29129 22.6746 12.449
222 1 3.99748 22.6465 12.6319
223 1 6.87265 22.4457 12.5041
224 1 9.64394 22.6735 12.4577
225 1 12.5987 22.4994 12.6314
12111 2 -0.0448606 10.0537 11.3118
12131 2 2.60805 4.37627 13.9374
12061 2 -0.121441 4.42271 5.68909
12071 2 -0.0508561 10.0482 5.529
15121 2 13.945 23.919 11.183
12055 2 5.51729 -1.14596 5.52982
12007 2 8.3462 -1.20979 2.91853
12008 2 5.43329 1.52982 2.80424
12133 2 8.22154 4.37245 13.9832
12010 2 11.1163 1.54452 2.76039
12125 2 11.1747 21.1241 11.1327
12059 2 11.2073 -1.1584 5.55453
12013 2 2.71194 4.42657 2.78245
12124 2 8.34773 23.8596 11.1957
12042 2 2.84046 24.0425 -0.0401594
12041 2 0.101502 21.3335 -0.165461
12017 2 8.37891 4.22162 2.79276
12018 2 5.52875 7.16456 2.70978
15032 2 14.0301 15.6417 2.66434
12020 2 11.0778 7.11176 2.75226
12113 2 5.52417 9.94684 11.2067
12104 2 8.36626 1.57478 11.1246
12023 2 2.63567 9.96022 2.7501
12031 2 -0.041826 15.6201 -0.0088202
15072 2 13.8979 9.9995 8.39911
12107 2 2.59544 7.19088 11.2065
12027 2 8.28267 9.91534 2.8225
12028 2 5.43746 12.803 2.80909
12024 2 0.0387893 12.7989 2.82703
12030 2 11.1947 12.7629 2.74852
12102 2 2.81599 1.59462 11.126
12114 2 8.34973 12.7449 11.2096
12033 2 2.75004 15.5729 2.85571
15091 2 13.9407 23.8757 5.57385
12100 2 11.0393 23.9301 8.42836
12099 2 11.0675 21.1462 5.51441
12037 2 8.46482 15.5711 2.68186
12038 2 5.58905 18.363 2.82415
12098 2 5.41721 23.9725 8.32055
12040 2 11.2013 18.233 2.72613
12097 2 8.231 21.1661 8.30625
12036 2 8.50777 18.274 -0.0875155
12043 2 2.77232 21.2787 2.76652
12123 2 5.48651 21.1537 11.0632
12096 2 8.24036 24.1387 5.63586
12095 2 5.55417 21.1492 5.5366
12047 2 8.38602 21.0916 2.77254
12048 2 5.50541 23.9217 2.72987
12115 2 11.2159 9.83306 11.1643
12050 2 11.0691 23.9499 2.78535
12002 2 2.59342 1.45381 -0.141321
12052 2 2.77436 1.63153 5.66701
12112 2 2.84572 12.7399 11.2416
12122 2 2.68419 24.023 11.2563
12110 2 11.2481 4.19587 11.2049
12056 2 8.3997 1.54588 5.53569
12109 2 8.24591 6.97198 11.153
12058 2 5.59114 1.61334 8.37033
12108 2 5.43429 4.3424 11.1405
12060 2 11.1298 1.63219 8.28786
12120 2 11.2171 15.5573 11.0431
12062 2 2.80851 7.1289 5.51949
12063 2 2.7266 4.33089 8.32921
12119 2 8.44953 18.2891 11.1295
12065 2 5.55316 4.40583 5.59521
12066 2 8.35115 7.2527 5.4628
12067 2 8.42567 4.41392 8.38893
12068 2 5.43567 7.13587 8.42097
12069 2 11.2707 4.46052 5.50161
12070 2 10.9869 7.29469 8.38785
12004 2 -0.0823179 1.48191 2.70802
12072 2 2.68469 12.8369 5.66612
12073 2 2.60353 9.97924 8.38948
12118 2 5.49756 15.6442 11.185
12075 2 5.56954 9.94772 5.68453
12076 2 8.29665 12.7997 5.56803
12077 2 8.33017 9.99976 8.39981
12078 2 5.56847 12.7418 8.35402
12079 2 11.2156 9.92092 5.53411
12080 2 11.1343 12.7055 8.38981
12054 2 -0.0240975 1.52373 8.34075
12082 2 2.6273 18.416 5.50105
12083 2 2.69157 15.5764 8.44945
12117 2 2.6532 18.343 11.2047
12085 2 5.62029 15.6255 5.53815
12086 2 8.41142 18.3406 5.47575
12087 2 8.39992 15.5796 8.37353
12088 2 5.5394 18.2434 8.29583
12089 2 11.1588 15.5211 5.53782
12090 2 11.0838 18.442 8.37137
12005 2 5.51649 -1.31621 0.000810113
12092 2 2.63895 23.8974 5.43998
12093 2 2.78123 21.1615 8.32413
15092 2 13.8771 21.1351 8.32486
15042 2 13.836 21.2166 2.68531
15071 2 13.9616 12.8348 5.59551
12032 2 2.86934 18.4711 -0.0585804
12034 2 -0.0623436 18.5648 2.82275
12094 2 -0.111368 24.0507 8.26827
12044 2 0.0021476 24.0671 2.68634
15116 2 13.9996 18.4196 11.1088
12130 2 11.2739 1.61929 13.9054
12146 2 2.67556 21.1293 13.9212
12015 2 5.49316 4.22442 -0.224434
12029 2 11.1308 9.89425 -0.0778085
12035 2 5.5915 15.564 -0.00616551
12129 2 5.3727 1.42707 14.0224
12150 2 11.1323 23.9196 13.9138
15141 2 14.0046 15.5213 13.9004
12012 2 2.677 7.14784 -0.0693782
12026 2 8.29048 12.6436 -0.081381
12149 2 5.40134 23.8625 13.9758
12049 2 11.2122 21.1238 -0.0937176
12006 2 8.47148 1.51282 0.0223201
12022 2 2.62955 12.7393 -0.0768163
12011 2 -0.0664247 4.30572 -0.0905096
15136 2 13.8862 10.0142 13.9161
226 1 4.04196 0.218616 15.4961
227 1 1.1382 0.310247 15.3954
228 1 3.99392 3.08354 15.469
229 1 1.05117 3.03306 15.2284
230 1 9.7501 0.190544 15.5186
231 1 6.89032 0.198757 15.3894
232 1 9.74676 3.18134 15.3742
233 1 6.94106 2.99724 15.6018
234 1 12.4666 0.195312 15.2993
235 1 12.673 2.8855 15.3816
236 1 4.08242 5.84114 15.4898
237 1 1.32198 5.86925 15.3998
238 1 4.2325 8.52001 15.4629
239 1 1.20932 8.54073 15.4929
240 1 9.68038 5.95511 15.3934
241 1 6.92497 5.72688 15.4324
242 1 9.74267 8.72697 15.2942
243 1 6.91313 8.64369 15.2558
244 1 12.5138 5.65137 15.2921
245 1 12.5055 8.56263 15.5178
246 1 3.94118 11.3261 15.4265
247 1 1.30436 11.2631 15.4256
248 1 4.11612 14.2091 15.5288
249 1 1.42453 14.0167 15.4794
250 1 9.65884 11.506 15.5828
251 1 6.89823 11.3573 15.2507
252 1 9.74866 14.3892 15.421
253 1 6.98527 14.1343 15.4482
254 1 12.4776 11.4793 15.2163
255 1 12.5892 14.4013 15.3639
256 1 3.96094 16.9596 15.3999
257 1 1.42166 16.9537 15.3271
258 1 4.25095 19.7709 15.4346
259 1 1.41454 19.7791 15.4848
260 1 9.64328 17.1038 15.5454
261 1 6.84031 16.9671 15.401
262 1 9.60934 19.8167 15.3193
263 1 6.92454 19.7626 15.3932
264 1 12.4507 16.9819 15.484
265 1 12.4678 19.6665 15.4378
266 1 4.08739 22.6283 15.3109
267 1 1.15412 22.6534 15.2114
268 1 9.85856 22.5641 15.1922
269 1 7.03323 22.5979 15.2435
270 1 12.5428 22.5143 15.5084
271 1 1.10589 0.152914 18.2937
272 1 3.90573 0.148764 18.081
273 1 3.86057 0.0375286 20.8891
274 1 1.17948 0.130174 21.0414
275 1 1.39194 2.97983 18.0708
276 1 3.92569 2.88179 18.3235
277 1 4.10501 5.68636 21.1137
278 1 1.33414 2.86858 21.0435
279 1 6.78521 0.0964488 18.2573
280 1 9.74438 0.222044 18.2349
281 1 9.66689 0.182187 20.9579
282 1 6.77018 0.390606 21.1313
283 1 6.70302 3.04169 18.7659
284 1 9.67972 2.95792 18.2981
285 1 9.41432 3.04422 21.1313
286 1 4.1958 2.88111 21.1783
287 1 12.4545 0.104404 18.1372
288 1 12.4945 0.406961 20.9737
289 1 12.4635 2.98011 18.0815
290 1 12.3252 3.17224 20.7952
291 1 1.24138 5.69553 18.2655
292 1 4.19202 5.69609 18.2662
293 1 4.10319 8.61907 21.0391
294 1 1.32431 5.565 21.0313
295 1 1.39326 8.54402 18.2085
296 1 4.10313 8.49158 18.2263
297 2 5.53001 9.89028 22.2799
298 1 1.35786 8.47979 20.7875
299 1 6.87052 5.86881 18.3289
300 1 9.71078 5.82831 18.1066
301 1 9.64905 5.79065 20.8338
302 1 6.78373 5.59368 21.0089
303 1 6.86355 8.66462 17.9241
304 1 9.7828 8.50603 18.0974
305 1 9.86679 8.61921 20.7845
306 1 6.88276 8.44537 20.9912
307 1 12.4862 5.71772 18.105
308 1 12.3169 5.85511 21.0002
309 1 12.7625 8.73391 18.2018
310 1 12.6267 8.51933 20.9878
311 1 1.32989 11.4234 18.3302
312 1 4.11484 11.4074 18.1886
313 1 4.02262 11.4006 21.0519
314 1 1.2231 11.5054 21.1816
315 1 1.14942 14.3569 18.2565
316 1 4.05585 14.3467 18.3021
317 1 4.11241 14.1981 21.1222
318 1 1.34876 14.344 21.0152
319 1 6.80738 11.5692 18.0297
320 1 9.68099 11.2237 18.1873
321 1 9.65629 11.2995 21.0119
322 1 6.81617 11.2966 20.7765
323 1 6.8462 14.2361 18.2385
324 1 9.67629 14.0105 18.2356
325 1 9.73959 14.0619 20.9447
326 1 6.80138 14.1327 21.0599
327 1 12.4085 11.3653 18.1005
328 1 12.5359 11.459 21.0274
329 1 12.5698 14.2189 18.2205
330 1 12.5655 14.2043 21.1143
331 1 1.36465 17.0523 18.0212
332 1 4.14076 17.268 18.306
333 1 4.10524 16.9122 21.0674
334 1 1.15828 16.962 21.1809
335 1 1.32822 19.8532 18.3587
336 1 4.15069 20.004 18.2463
337 1 4.17168 19.8181 21.1558
338 1 1.31217 19.8544 21.0544
339 1 6.97051 17.0248 18.1177
340 1 9.75555 16.8639 18.302
341 1 9.75545 16.8874 20.9838
342 1 6.97468 16.9385 20.9868
343 1 7.00851 19.9332 18.2209
344 1 9.66419 19.7652 18.1691
345 1 9.79507 19.7199 20.8788
346 1 7.07417 19.7135 20.9984
347 1 12.5372 16.9534 18.2439
348 1 12.5515 16.9568 21.0991
349 1 12.4634 19.6932 18.3302
350 1 12.5511 19.757 21.0991
351 1 1.26877 22.6104 18.1069
352 1 4.05702 22.7235 18.0944
353 1 4.19816 22.5961 21.1697
354 1 1.2437 22.6299 20.9096
355 1 6.98943 22.7805 18.0759
356 1 9.72049 22.5577 18.2446
357 1 9.79235 22.6188 21.0659
358 1 7.03151 22.5657 20.8919
359 1 12.5695 22.5189 18.159
360 1 12.4941 22.5569 20.9944
361 1 1.35718 0.0123322 23.7469
362 1 4.20571 0.126908 23.7303
363 1 4.15069 0.0900456 26.582
364 1 1.36798 0.12847 26.5592
365 1 1.23036 2.83771 23.8868
366 1 4.08205 2.95453 23.9202
367 1 3.95961 2.84349 26.574
368 1 1.17736 3.01758 26.6253
369 1 7.03233 0.0493755 23.8982
370 1 9.80527 0.161254 23.8383
371 1 9.84771 0.255794 26.5943
372 1 6.91657 0.0381959 26.6302
373 1 6.90925 2.9334 23.4871
374 1 9.87456 2.85216 23.7867
375 1 9.62929 2.97077 26.599
376 1 6.83643 2.79382 26.4802
377 1 12.5291 0.111717 23.7992
378 1 12.5988 0.202755 26.465
379 1 12.6362 3.02653 23.7143
380 1 12.5627 3.03896 26.5939
381 1 1.48261 5.74687 23.8526
382 1 4.16783 5.80402 23.9264
383 1 4.02803 5.64845 26.6325
384 1 1.18591 5.73088 26.6445
385 1 1.24312 8.54976 23.7085
386 1 4.01358 8.6295 23.7502
387 1 4.0382 8.40892 26.5375
388 1 1.36101 8.39243 26.3837
389 1 6.88997 5.83328 23.6479
390 1 9.68815 5.73656 23.6705
391 1 9.57981 5.71913 26.4115
392 1 6.77473 5.64986 26.5527
393 1 6.86316 8.62044 23.8137
394 1 9.56039 8.69941 23.7373
395 1 9.79331 8.51084 26.4565
396 1 6.85049 8.41869 26.6476
397 1 12.4938 5.64047 23.7061
398 1 12.4484 5.82288 26.5825
399 1 12.4624 8.65379 23.7824
400 1 12.5198 8.65643 26.7077
401 1 1.24023 11.3251 23.8091
402 1 4.27243 11.3237 23.6782
403 1 4.02282 11.2906 26.6238
404 1 1.15214 11.3096 26.6577
405 1 1.30371 14.1597 23.8434
406 1 4.16159 14.0846 23.8565
407 1 3.99126 14.0527 26.5254
408 1 1.16969 14.0375 26.7041
409 1 7.07063 11.3722 23.6509
410 1 9.76905 11.2782 23.8769
411 1 9.56732 11.3265 26.5808
412 1 6.76883 11.333 26.5495
413 1 6.9668 14.1154 23.8459
414 1 9.71767 14.0459 23.7465
415 1 9.65609 14.0206 26.7532
416 1 6.95424 14.134 26.7528
417 1 12.47 11.4091 23.7128
418 1 12.5745 11.4362 26.7514
419 1 12.6621 14.3033 23.8169
420 1 12.7205 14.3033 26.6234
421 1 1.39266 16.9863 24.0141
422 1 4.06927 16.9782 23.8988
423 1 4.03873 16.8917 26.7339
424 1 1.12791 16.8232 26.6347
425 1 1.25921 19.7119 23.7005
426 1 4.14345 19.7984 23.8008
427 1 4.15092 19.8524 26.546
428 1 1.40473 19.8518 26.5962
429 1 6.93036 16.8501 23.8575
430 1 9.88743 19.5806 23.7386
431 1 9.66193 16.8699 26.6503
432 1 6.92371 17.1116 26.6146
433 1 6.94562 19.7243 23.7416
434 1 12.6442 22.5478 23.6945
435 1 9.75493 19.7159 26.542
436 1 6.89865 19.6544 26.6332
437 1 12.4836 17.0212 23.8596
438 1 12.4707 17.0975 26.5484
12216 2 8.23323 7.1848 22.4181
440 1 12.5684 19.9811 26.4858
441 1 1.24395 22.6056 23.9414
442 1 4.07971 22.5713 23.9186
443 1 4.32001 22.733 26.6748
444 1 1.49199 22.6748 26.6392
445 1 6.96952 22.6271 23.8251
446 1 9.61693 22.3049 23.7616
447 1 9.86542 22.5631 26.7896
448 1 7.16739 22.404 26.6097
15191 2 13.9832 23.9873 16.7654
450 1 12.54 22.6106 26.5217
15232 2 13.9608 15.6019 25.1823
12250 2 11.1242 23.7966 25.1971
15211 2 13.933 7.01543 22.3561
439 1 12.5912 19.8677 23.7481
12215 2 5.42436 4.39059 22.503
12227 2 8.3071 9.98122 25.277
12249 2 11.191 21.1873 22.2846
12226 2 11.1674 15.5741 22.3869
12225 2 8.32081 12.6495 22.2491
12142 2 -0.0661646 18.2236 13.9276
12223 2 2.63224 9.83243 25.1432
12248 2 5.61189 23.9009 25.2404
12222 2 2.75281 12.7446 22.4278
12228 2 5.51551 12.6357 25.1341
12138 2 8.37536 9.95383 13.9601
12220 2 11.02 7.15159 25.1478
12247 2 8.38349 20.9938 25.2353
12234 2 -0.0324638 18.3193 25.2572
12046 2 8.42063 23.853 28.0392
12145 2 11.0513 18.3836 14.0359
12219 2 11.1472 4.40399 22.1924
12246 2 8.30818 24.0075 22.2898
15152 2 13.8437 -1.20249 19.4229
12218 2 5.53952 7.13775 25.2507
12209 2 11.1619 -1.17896 22.4079
12245 2 5.57998 21.1111 22.471
12152 2 2.54482 1.52996 16.7082
12141 2 2.61573 15.4737 13.9999
12243 2 2.65804 21.2646 25.0627
12161 2 -0.0320222 4.25206 16.8094
12156 2 8.33005 1.44824 16.8149
12184 2 -0.107232 18.3417 19.6256
12158 2 5.2913 1.31459 19.5947
12213 2 2.68652 4.26645 25.2111
12160 2 11.1484 1.64859 19.419
12242 2 2.66514 24.0592 22.4133
12162 2 2.63375 7.12321 16.8384
12163 2 2.79667 4.38875 19.6915
12240 2 11.187 18.3987 25.078
12165 2 5.49069 4.25244 16.9887
12166 2 8.29831 7.18767 16.6693
12167 2 8.33072 4.47286 19.5633
12168 2 5.47302 7.22078 19.5717
12169 2 11.0549 4.35755 16.7902
12170 2 11.0753 7.312 19.4105
12239 1 9.63235 16.72 23.8277
12172 2 2.66866 12.6899 16.8117
12173 2 2.73281 9.99337 19.6143
12238 2 5.64375 18.3087 25.1282
12175 2 5.61986 10.0098 16.6869
12176 2 8.24866 12.8158 16.7318
12177 2 8.33147 10.0052 19.4947
12178 2 5.53063 12.8288 19.5348
12179 2 11.0885 9.971 16.8089
12180 2 11.1723 12.6087 19.681
12237 2 8.2924 15.4329 25.252
12182 2 2.64474 18.48 16.7897
12183 2 2.71091 15.5639 19.6611
12236 2 8.38993 18.2977 22.3482
12185 2 5.46564 15.6511 16.7426
12186 2 8.23784 18.3475 16.6931
12187 2 8.34632 15.4708 19.5125
12188 2 5.63621 18.3658 19.6514
12189 2 11.1562 15.6529 16.8675
12190 2 11.1226 18.2729 19.5165
12235 2 5.47632 15.5067 22.4625
12192 2 2.56644 23.9796 16.7049
12193 2 2.77132 21.2501 19.6035
12212 2 2.69606 7.11051 22.3255
12195 2 5.54974 21.2161 16.8141
12196 2 8.39193 23.987 16.7818
12197 2 8.43808 21.1775 19.6194
12198 2 5.34943 24.0396 19.5227
12199 2 11.0479 21.1543 16.7349
12200 2 11.1864 23.997 19.4389
12233 2 2.68642 15.4285 25.3405
12202 2 2.59522 1.49095 22.3706
12230 2 11.1165 12.7139 25.1529
12232 2 2.62284 18.2591 22.4289
12210 2 11.2862 1.49523 25.2612
12206 2 8.42053 1.50086 22.5705
12229 2 10.9907 9.87237 22.4293
12208 2 5.38583 1.36607 25.2405
12217 2 8.40383 4.23998 25.0555
12207 2 8.28633 -1.24684 25.2412
12045 2 5.61164 21.0545 27.9612
15146 2 13.9017 21.1042 14.0013
12019 2 11.0334 4.3349 28.0324
12140 2 11.1111 12.8556 14.0931
12155 2 5.5491 -1.32635 16.8298
15162 2 13.8769 4.29275 19.4718
12224 2 -0.144567 12.6509 25.1656
12211 2 -0.144644 4.2956 22.4397
12214 2 -0.121948 7.13072 25.1639
12174 2 -0.159152 12.7906 19.6099
12241 2 -0.0870479 21.1292 22.5217
15181 2 13.8672 18.3813 16.7939
12144 2 5.43448 18.3298 14.018
12194 2 -0.179726 23.9382 19.6367
12244 2 -0.0294301 24.1288 25.2723
15151 2 13.9242 1.51677 16.7172
12204 2 -0.12268 1.47335 25.1979
15182 2 13.9616 15.4558 19.5792
12171 2 -0.101627 9.93308 16.9302
12025 2 5.5262 9.82962 28.0036
12147 2 -0.163859 24.0484 13.8862
12181 2 -0.114739 15.5462 16.8237
15171 2 13.8842 12.825 16.7576
15212 2 13.9569 4.2661 25.1439
12148 2 8.15296 21.1023 13.9158
12016 2 8.27583 7.08109 28.0134
12132 2 -0.122989 7.13178 14.1452
12009 2 11.155 -1.31512 27.9395
12136 2 2.71245 9.78355 13.9347
12143 2 8.38723 15.6233 13.9897
12039 2 11.1853 15.4311 28.0257
15011 2 13.8982 7.03694 28.0729
12135 2 11.1807 7.06778 13.975
12134 2 5.49698 7.15295 14.0606
12139 2 5.57856 12.7689 13.9552
15001 2 13.9315 1.44843 27.9328
451 1 1.41809 25.4725 1.39122
452 1 4.10425 25.3209 1.33269
453 1 4.0939 25.3678 4.04804
454 1 1.22427 25.3949 4.25319
455 1 6.87916 25.4437 1.34807
456 1 9.64799 25.3237 1.49871
457 1 9.83622 25.5134 4.12257
458 1 6.86877 25.437 4.08623
459 1 12.3865 25.5057 1.49596
460 1 12.5949 25.4479 4.11649
461 1 1.44505 28.2738 1.52655
462 1 4.20329 28.3077 1.41454
463 1 4.08461 28.1671 4.16275
464 1 1.19625 28.2197 4.08192
465 1 1.29955 30.9962 1.38247
466 1 4.03712 31.0829 1.36733
467 1 4.08461 31.0634 4.11908
468 1 1.27862 30.8402 4.24339
469 1 6.82651 28.2412 1.19038
470 1 9.82141 28.0175 1.48415
471 1 9.71118 28.2853 4.22372
472 1 6.92159 28.1885 4.14899
473 1 6.87232 31.1116 1.34659
474 1 9.64099 30.795 1.46204
475 1 9.72292 31.1714 4.22453
476 1 6.89544 30.9451 4.07337
477 1 12.3795 28.3646 1.32747
478 1 12.6654 28.3048 4.18436
910 1 9.75666 50.8567 1.27524
480 1 12.5698 31.0122 1.41861
481 1 1.17897 33.9229 1.32237
482 1 3.91264 33.8272 1.19106
483 1 4.01281 33.9057 3.97378
484 1 1.24393 36.6962 1.22494
12306 2 -0.134675 29.6412 8.3364
486 1 4.04903 36.5591 1.37173
487 1 4.09978 36.7668 4.09054
15317 2 14.1281 37.945 8.36917
489 1 6.753 33.8486 1.28826
490 1 9.73206 33.6197 1.24381
491 1 9.75089 33.8703 4.14804
492 1 6.80274 33.9024 4.11305
493 1 6.96258 36.6571 1.26324
494 1 9.86401 36.3818 1.29287
495 1 9.80588 36.5478 4.09996
496 1 6.88325 36.6709 4.05697
497 1 12.5069 33.9182 1.63038
498 1 12.5331 33.9351 4.3759
499 1 12.6653 36.7994 1.5653
500 1 12.6995 36.6797 4.27204
501 1 1.26719 39.5658 1.20348
502 1 4.09271 39.3772 1.27874
503 1 4.0844 39.5219 4.08574
504 1 1.35582 39.3712 4.17437
505 1 1.37476 42.3034 1.23855
506 1 4.19811 42.248 1.28151
507 1 3.96789 42.3076 4.09545
508 1 1.00939 42.3035 4.00209
509 1 6.9392 39.4548 1.08244
15326 2 13.9216 46.3499 5.35147
511 1 9.80504 39.237 1.20011
512 1 7.11064 39.5441 3.6875
513 1 6.97024 42.2858 1.26384
514 1 9.76318 42.1719 1.31761
515 1 9.52766 42.0988 4.05505
516 1 6.76758 42.3472 3.97977
517 1 12.4478 39.6534 1.38014
518 1 12.6168 39.4595 4.17192
519 1 12.5107 42.5082 1.31877
520 1 12.4406 42.2565 4.06705
521 1 1.34756 45.094 1.33179
522 1 4.15782 44.9131 1.16696
523 1 3.95204 45.108 4.03362
524 1 1.25041 44.9607 4.09284
525 1 1.24518 47.8664 1.15017
526 1 3.98689 47.7585 1.14923
527 1 4.05241 48.0054 3.8766
528 1 1.18737 47.8031 4.08018
529 1 7.00783 45.034 1.31037
530 1 9.76902 45.1836 1.28974
531 1 9.75289 45.0963 3.99481
532 1 6.78989 45.1681 3.9955
533 1 6.84915 47.7184 1.40419
534 1 9.73321 48.1022 1.35085
535 1 9.67739 47.8203 4.14009
536 1 6.80424 47.9066 4.04977
537 1 12.4956 45.2374 1.10242
538 1 12.5339 45.1991 3.93919
539 1 12.5926 48.1694 1.32247
540 1 12.6549 47.9552 4.08448
541 1 1.45678 25.5744 6.88292
542 1 4.06356 25.2174 6.81687
543 1 4.02991 25.4272 9.77234
544 1 1.17149 25.5543 9.78058
545 1 6.78927 25.4398 7.05355
546 1 9.71307 25.4888 7.10479
547 1 9.776 25.3802 9.77407
548 1 6.83171 25.3386 9.67399
549 1 12.6492 25.2304 6.92333
550 1 12.5806 25.3134 9.80895
551 1 1.3131 28.1721 6.8872
552 1 3.91266 28.2416 7.06341
553 1 4.12979 28.3216 9.69637
554 1 1.21388 28.3148 9.58188
555 1 1.2349 33.793 4.09863
556 1 4.08691 30.9471 6.94581
557 1 4.04946 31.1353 9.79839
558 1 1.26907 31.0266 9.80556
559 1 6.89781 28.2414 6.96627
560 1 9.7206 28.1119 6.94768
561 1 9.7654 28.128 9.69424
562 1 6.88835 28.0849 9.83572
563 1 6.88626 30.941 6.95057
564 1 9.80083 30.817 6.95736
565 1 9.57439 30.8921 9.62683
566 1 6.85269 30.9193 9.72403
567 1 12.5509 28.0769 7.01382
568 1 12.443 28.2252 9.81015
569 1 12.5255 30.9823 7.0184
570 1 12.2677 31.1422 9.57882
571 1 1.2298 33.8755 6.99852
572 1 4.06463 33.773 6.9057
573 1 4.08375 33.8773 9.8864
574 1 1.21707 33.9176 9.66192
575 1 1.32555 36.6257 6.91441
576 1 3.93632 36.748 6.86481
577 1 3.9757 36.674 9.70853
578 1 1.15609 36.6559 9.73773
579 1 7.03742 33.6549 6.9105
580 1 9.68648 33.7214 6.96709
581 1 9.68964 33.8055 9.78866
582 1 6.7767 33.6862 9.66866
583 1 6.66117 36.2548 6.69651
584 1 9.9257 36.4606 6.89897
585 1 9.83485 36.5286 10.0081
586 1 6.6792 36.4302 9.92487
587 1 12.52 33.8582 7.05967
588 1 12.4894 33.9245 9.80268
589 1 12.7059 36.6235 7.06169
590 1 12.509 36.6669 9.80225
591 1 1.06941 39.6674 6.88974
592 1 3.96195 39.3733 6.92775
593 1 3.82541 39.3101 9.79673
594 1 1.07298 39.3565 9.7353
595 1 1.20421 42.4453 6.97417
596 1 3.97269 42.3374 6.95918
597 1 3.97184 42.2794 9.70258
598 1 1.1012 42.3165 9.78892
599 1 6.59317 39.6754 6.6586
600 1 9.86533 39.1759 4.00803
601 1 9.95111 39.7703 9.93464
602 1 6.54063 39.6514 9.92267
603 1 6.90388 42.3553 6.83998
604 1 9.69547 42.2845 6.87547
605 1 9.66226 42.3048 9.65769
606 1 6.88468 42.4578 9.79195
607 1 12.7591 39.5333 7.00498
608 1 12.6585 39.5127 9.74829
609 1 12.5804 42.1756 6.78062
610 1 12.4336 42.3463 9.75315
611 1 1.15524 45.1149 6.87288
612 1 4.0694 45.1331 6.93808
613 1 4.13671 45.1083 9.93562
614 1 1.23376 45.1321 9.59631
615 1 1.19037 47.7966 6.86438
616 1 3.93015 47.9373 6.89159
617 1 4.13074 47.8443 9.79395
618 1 1.2907 47.8411 9.61551
619 1 6.8834 45.0656 6.85006
620 1 9.55979 44.9947 6.92767
621 1 9.50136 45.1846 9.61928
622 1 6.90151 45.2429 9.60369
623 1 6.73004 47.9098 6.93027
624 1 9.5472 47.9767 6.81168
625 1 9.83175 47.915 9.57908
626 1 6.95203 47.952 9.65436
627 1 12.4294 44.9895 6.75377
628 1 12.3641 44.9976 9.53919
629 1 12.313 47.83 6.87888
630 1 12.5608 47.8857 9.52652
631 1 1.15837 25.4242 12.5663
632 1 4.01622 25.6238 12.5523
633 1 6.97788 25.1975 12.5512
634 1 9.79995 25.3445 12.6135
635 1 12.4324 25.482 12.5461
636 1 1.19366 28.3429 12.4529
637 1 4.09278 28.1843 12.5824
638 1 1.14848 31.1323 12.7607
639 1 4.00571 31.0356 12.6544
640 1 6.85607 28.0127 12.5327
641 1 9.66188 28.1352 12.4881
642 1 6.90737 30.8609 12.6679
643 1 9.6814 31.0063 12.4512
644 1 12.4469 28.1553 12.7058
645 1 12.3305 30.9712 12.4601
646 1 1.22216 33.913 12.4777
647 1 4.03808 33.9538 12.6521
648 1 1.20992 36.7812 12.5855
649 1 4.01628 36.6431 12.5168
650 1 6.78165 33.5819 12.6321
651 1 9.69586 33.7639 12.6512
652 1 6.85156 36.6679 12.6439
653 1 9.63101 36.5596 12.6857
654 1 12.3549 33.759 12.5151
655 1 12.3438 36.7316 12.5454
656 1 1.26473 39.4869 12.5506
657 1 3.95831 39.5263 12.4391
658 1 1.10087 42.4069 12.5661
659 1 3.89846 42.2714 12.5063
660 1 6.91093 39.4874 12.6879
661 1 9.68531 39.5001 12.5521
662 1 6.84505 42.2951 12.5994
663 1 9.65188 42.347 12.4642
664 1 12.5294 39.5876 12.5386
665 1 12.3981 42.2948 12.4434
666 1 1.31696 45.2442 12.4595
667 1 4.20848 45.1394 12.5628
668 1 1.15046 47.9946 12.6964
669 1 4.03431 47.9788 12.5462
670 1 6.97164 45.0979 12.5307
671 1 9.65752 45.17 12.4121
672 1 6.88962 47.9519 12.5692
673 1 9.60505 48.1385 12.2992
674 1 12.5729 45.299 12.4218
675 1 12.3939 48.1394 12.4012
12363 2 11.0485 49.344 10.8636
12256 2 7.89492 29.7105 -0.133981
12253 2 2.79691 26.7927 2.75583
12362 2 5.44892 49.2147 11.1488
15296 2 13.9855 29.5708 5.68005
488 1 1.24102 36.6147 4.07896
12257 2 8.34732 26.7168 2.73854
12258 2 5.44195 29.6759 2.79199
1101 1 1.12541 50.7837 12.4762
12260 2 11.1968 29.6253 3.15175
12309 2 -0.0418782 35.2837 8.30412
12349 2 8.20621 35.2746 11.1798
12263 2 2.56623 32.4737 2.76764
12360 2 11.0204 43.6733 10.9779
12348 2 5.44459 32.453 11.1393
12347 2 2.58372 35.29 11.092
12267 2 8.41197 32.5632 2.80697
12268 2 5.47447 35.2355 2.73103
901 1 1.12447 50.7275 1.14568
12270 2 11.1453 35.3071 2.86831
12359 2 8.3476 46.4938 11.1087
12345 2 11.0684 26.7578 11.0835
12273 2 2.6964 38.0089 2.69094
12358 2 5.4843 43.7489 11.0936
12344 2 8.37209 29.5372 11.0388
12343 2 5.48588 26.8034 11.2499
12277 2 8.45027 37.933 2.57355
12278 2 5.54432 40.7808 2.66381
12341 2 -0.139271 26.7777 11.0699
12280 2 11.0506 40.7478 2.70034
12342 2 2.73124 29.4873 11.2073
15356 2 13.8435 46.5028 10.8682
12283 2 2.79232 43.5994 2.62721
12350 2 11.0912 32.3423 11.1018
12376 2 8.3228 38.0354 13.9218
6571 1 12.6251 31.1615 4.34487
12287 2 8.39011 43.4825 2.67925
12288 2 5.4707 46.3156 2.54245
15307 2 13.8792 32.4942 8.39765
12290 2 11.1137 46.4685 2.65688
12340 2 11.0779 49.2711 5.42273
12292 2 2.53973 49.1848 2.63685
12352 2 2.54099 40.7356 11.0308
12294 2 8.32805 49.1885 2.74218
903 1 4.16734 50.7559 3.99811
12357 2 2.71573 46.3828 11.1337
12297 2 2.75761 29.6043 5.50091
12298 2 2.68979 26.8025 8.38663
12299 1 1.21022 31.0382 6.9805
12300 2 5.41924 26.8064 5.56729
12301 2 8.32352 29.56 5.58327
12302 2 8.30042 26.7922 8.49424
12303 2 5.48475 29.6443 8.29664
12304 2 11.2209 26.6691 5.61826
12305 2 11.1281 29.5417 8.29487
15327 2 13.8584 43.6269 8.30819
12307 2 2.69309 35.1741 5.42311
12308 2 2.61748 32.4688 8.38907
12355 2 11.0427 38.1081 11.0698
12310 2 5.53126 32.3706 5.46516
12311 2 8.35078 35.1123 5.68824
12312 2 8.2197 32.3585 8.37699